+ 1 0 2 tcp 40 ------- 0 0.0 5.0 0 0
- 1 0 2 tcp 40 ------- 0 0.0 5.0 0 0
+ 1 2 3 tcp 40 ------- 0 2.0 3.0 0 1
- 1 2 3 tcp 40 ------- 0 2.0 3.0 0 1
r 1.010003 0 2 tcp 40 ------- 0 0.0 5.0 0 0
+ 1.010003 2 3 tcp 40 ------- 0 0.0 5.0 0 0
- 1.010003 2 3 tcp 40 ------- 0 0.0 5.0 0 0
r 1.010003 2 3 tcp 40 ------- 0 2.0 3.0 0 1
+ 1.010003 3 2 ack 40 ------- 0 3.0 2.0 0 2
- 1.010003 3 2 ack 40 ------- 0 3.0 2.0 0 2
r 1.020006 2 3 tcp 40 ------- 0 0.0 5.0 0 0
h 1.020006 3 6 tcp 40 ------- 0 0.0 5.0 0 0
r 1.020006 3 2 ack 40 ------- 0 3.0 2.0 0 2
+ 1.020006 2 3 tcp 1040 ------- 0 2.0 3.0 1 3
- 1.020006 2 3 tcp 1040 ------- 0 2.0 3.0 1 3
+ 1.020006 2 3 tcp 1040 ------- 0 2.0 3.0 2 4
- 1.02009 2 3 tcp 1040 ------- 0 2.0 3.0 2 4
r 1.03009 2 3 tcp 1040 ------- 0 2.0 3.0 1 3
+ 1.03009 3 2 ack 40 ------- 0 3.0 2.0 1 5
- 1.03009 3 2 ack 40 ------- 0 3.0 2.0 1 5
r 1.030173 2 3 tcp 1040 ------- 0 2.0 3.0 2 4
+ 1.030173 3 2 ack 40 ------- 0 3.0 2.0 2 6
- 1.030173 3 2 ack 40 ------- 0 3.0 2.0 2 6
r 1.040093 3 2 ack 40 ------- 0 3.0 2.0 1 5
+ 1.040093 2 3 tcp 1040 ------- 0 2.0 3.0 3 7
- 1.040093 2 3 tcp 1040 ------- 0 2.0 3.0 3 7
+ 1.040093 2 3 tcp 1040 ------- 0 2.0 3.0 4 8
r 1.040176 3 2 ack 40 ------- 0 3.0 2.0 2 6
+ 1.040176 2 3 tcp 1040 ------- 0 2.0 3.0 5 9
+ 1.040176 2 3 tcp 1040 ------- 0 2.0 3.0 6 10
- 1.040176 2 3 tcp 1040 ------- 0 2.0 3.0 4 8
- 1.040259 2 3 tcp 1040 ------- 0 2.0 3.0 5 9
- 1.040342 2 3 tcp 1040 ------- 0 2.0 3.0 6 10
r 1.050176 2 3 tcp 1040 ------- 0 2.0 3.0 3 7
+ 1.050176 3 2 ack 40 ------- 0 3.0 2.0 3 11
- 1.050176 3 2 ack 40 ------- 0 3.0 2.0 3 11
r 1.050259 2 3 tcp 1040 ------- 0 2.0 3.0 4 8
+ 1.050259 3 2 ack 40 ------- 0 3.0 2.0 4 12
- 1.050259 3 2 ack 40 ------- 0 3.0 2.0 4 12
r 1.050342 2 3 tcp 1040 ------- 0 2.0 3.0 5 9
+ 1.050342 3 2 ack 40 ------- 0 3.0 2.0 5 13
- 1.050342 3 2 ack 40 ------- 0 3.0 2.0 5 13
r 1.050426 2 3 tcp 1040 ------- 0 2.0 3.0 6 10
+ 1.050426 3 2 ack 40 ------- 0 3.0 2.0 6 14
- 1.050426 3 2 ack 40 ------- 0 3.0 2.0 6 14
+ 1.060006 3 6 tcp 40 ------- 0 0.0 5.0 0 0
- 1.060006 3 6 tcp 40 ------- 0 0.0 5.0 0 0
d 1.06001 4 6 tcp 40 ------- 0 0.0 5.0 0 0
r 1.060179 3 2 ack 40 ------- 0 3.0 2.0 3 11
+ 1.060179 2 3 tcp 1040 ------- 0 2.0 3.0 7 15
- 1.060179 2 3 tcp 1040 ------- 0 2.0 3.0 7 15
+ 1.060179 2 3 tcp 1040 ------- 0 2.0 3.0 8 16
r 1.060262 3 2 ack 40 ------- 0 3.0 2.0 4 12
+ 1.060262 2 3 tcp 1040 ------- 0 2.0 3.0 9 17
+ 1.060262 2 3 tcp 1040 ------- 0 2.0 3.0 10 18
- 1.060262 2 3 tcp 1040 ------- 0 2.0 3.0 8 16
r 1.060346 3 2 ack 40 ------- 0 3.0 2.0 5 13
+ 1.060346 2 3 tcp 1040 ------- 0 2.0 3.0 11 19
+ 1.060346 2 3 tcp 1040 ------- 0 2.0 3.0 12 20
- 1.060346 2 3 tcp 1040 ------- 0 2.0 3.0 9 17
r 1.060429 3 2 ack 40 ------- 0 3.0 2.0 6 14
+ 1.060429 2 3 tcp 1040 ------- 0 2.0 3.0 13 21
+ 1.060429 2 3 tcp 1040 ------- 0 2.0 3.0 14 22
- 1.060429 2 3 tcp 1040 ------- 0 2.0 3.0 10 18
- 1.060512 2 3 tcp 1040 ------- 0 2.0 3.0 11 19
- 1.060595 2 3 tcp 1040 ------- 0 2.0 3.0 12 20
- 1.060678 2 3 tcp 1040 ------- 0 2.0 3.0 13 21
- 1.060762 2 3 tcp 1040 ------- 0 2.0 3.0 14 22
r 1.070262 2 3 tcp 1040 ------- 0 2.0 3.0 7 15
+ 1.070262 3 2 ack 40 ------- 0 3.0 2.0 7 23
- 1.070262 3 2 ack 40 ------- 0 3.0 2.0 7 23
r 1.070346 2 3 tcp 1040 ------- 0 2.0 3.0 8 16
+ 1.070346 3 2 ack 40 ------- 0 3.0 2.0 8 24
- 1.070346 3 2 ack 40 ------- 0 3.0 2.0 8 24
r 1.070429 2 3 tcp 1040 ------- 0 2.0 3.0 9 17
+ 1.070429 3 2 ack 40 ------- 0 3.0 2.0 9 25
- 1.070429 3 2 ack 40 ------- 0 3.0 2.0 9 25
r 1.070512 2 3 tcp 1040 ------- 0 2.0 3.0 10 18
+ 1.070512 3 2 ack 40 ------- 0 3.0 2.0 10 26
- 1.070512 3 2 ack 40 ------- 0 3.0 2.0 10 26
r 1.070595 2 3 tcp 1040 ------- 0 2.0 3.0 11 19
+ 1.070595 3 2 ack 40 ------- 0 3.0 2.0 11 27
- 1.070595 3 2 ack 40 ------- 0 3.0 2.0 11 27
r 1.070678 2 3 tcp 1040 ------- 0 2.0 3.0 12 20
+ 1.070678 3 2 ack 40 ------- 0 3.0 2.0 12 28
- 1.070678 3 2 ack 40 ------- 0 3.0 2.0 12 28
r 1.070762 2 3 tcp 1040 ------- 0 2.0 3.0 13 21
+ 1.070762 3 2 ack 40 ------- 0 3.0 2.0 13 29
- 1.070762 3 2 ack 40 ------- 0 3.0 2.0 13 29
r 1.070845 2 3 tcp 1040 ------- 0 2.0 3.0 14 22
+ 1.070845 3 2 ack 40 ------- 0 3.0 2.0 14 30
- 1.070845 3 2 ack 40 ------- 0 3.0 2.0 14 30
r 1.080266 3 2 ack 40 ------- 0 3.0 2.0 7 23
+ 1.080266 2 3 tcp 1040 ------- 0 2.0 3.0 15 31
- 1.080266 2 3 tcp 1040 ------- 0 2.0 3.0 15 31
+ 1.080266 2 3 tcp 1040 ------- 0 2.0 3.0 16 32
r 1.080349 3 2 ack 40 ------- 0 3.0 2.0 8 24
+ 1.080349 2 3 tcp 1040 ------- 0 2.0 3.0 17 33
+ 1.080349 2 3 tcp 1040 ------- 0 2.0 3.0 18 34
- 1.080349 2 3 tcp 1040 ------- 0 2.0 3.0 16 32
r 1.080432 3 2 ack 40 ------- 0 3.0 2.0 9 25
+ 1.080432 2 3 tcp 1040 ------- 0 2.0 3.0 19 35
+ 1.080432 2 3 tcp 1040 ------- 0 2.0 3.0 20 36
- 1.080432 2 3 tcp 1040 ------- 0 2.0 3.0 17 33
r 1.080515 3 2 ack 40 ------- 0 3.0 2.0 10 26
+ 1.080515 2 3 tcp 1040 ------- 0 2.0 3.0 21 37
+ 1.080515 2 3 tcp 1040 ------- 0 2.0 3.0 22 38
- 1.080515 2 3 tcp 1040 ------- 0 2.0 3.0 18 34
r 1.080598 3 2 ack 40 ------- 0 3.0 2.0 11 27
+ 1.080598 2 3 tcp 1040 ------- 0 2.0 3.0 23 39
+ 1.080598 2 3 tcp 1040 ------- 0 2.0 3.0 24 40
- 1.080598 2 3 tcp 1040 ------- 0 2.0 3.0 19 35
r 1.080682 3 2 ack 40 ------- 0 3.0 2.0 12 28
+ 1.080682 2 3 tcp 1040 ------- 0 2.0 3.0 25 41
+ 1.080682 2 3 tcp 1040 ------- 0 2.0 3.0 26 42
- 1.080682 2 3 tcp 1040 ------- 0 2.0 3.0 20 36
r 1.080765 3 2 ack 40 ------- 0 3.0 2.0 13 29
+ 1.080765 2 3 tcp 1040 ------- 0 2.0 3.0 27 43
+ 1.080765 2 3 tcp 1040 ------- 0 2.0 3.0 28 44
- 1.080765 2 3 tcp 1040 ------- 0 2.0 3.0 21 37
r 1.080848 3 2 ack 40 ------- 0 3.0 2.0 14 30
+ 1.080848 2 3 tcp 1040 ------- 0 2.0 3.0 29 45
+ 1.080848 2 3 tcp 1040 ------- 0 2.0 3.0 30 46
- 1.080848 2 3 tcp 1040 ------- 0 2.0 3.0 22 38
- 1.080931 2 3 tcp 1040 ------- 0 2.0 3.0 23 39
- 1.081014 2 3 tcp 1040 ------- 0 2.0 3.0 24 40
- 1.081098 2 3 tcp 1040 ------- 0 2.0 3.0 25 41
- 1.081181 2 3 tcp 1040 ------- 0 2.0 3.0 26 42
- 1.081264 2 3 tcp 1040 ------- 0 2.0 3.0 27 43
- 1.081347 2 3 tcp 1040 ------- 0 2.0 3.0 28 44
- 1.08143 2 3 tcp 1040 ------- 0 2.0 3.0 29 45
- 1.081514 2 3 tcp 1040 ------- 0 2.0 3.0 30 46
r 1.090349 2 3 tcp 1040 ------- 0 2.0 3.0 15 31
+ 1.090349 3 2 ack 40 ------- 0 3.0 2.0 15 47
- 1.090349 3 2 ack 40 ------- 0 3.0 2.0 15 47
r 1.090432 2 3 tcp 1040 ------- 0 2.0 3.0 16 32
+ 1.090432 3 2 ack 40 ------- 0 3.0 2.0 16 48
- 1.090432 3 2 ack 40 ------- 0 3.0 2.0 16 48
r 1.090515 2 3 tcp 1040 ------- 0 2.0 3.0 17 33
+ 1.090515 3 2 ack 40 ------- 0 3.0 2.0 17 49
- 1.090515 3 2 ack 40 ------- 0 3.0 2.0 17 49
r 1.090598 2 3 tcp 1040 ------- 0 2.0 3.0 18 34
+ 1.090598 3 2 ack 40 ------- 0 3.0 2.0 18 50
- 1.090598 3 2 ack 40 ------- 0 3.0 2.0 18 50
r 1.090682 2 3 tcp 1040 ------- 0 2.0 3.0 19 35
+ 1.090682 3 2 ack 40 ------- 0 3.0 2.0 19 51
- 1.090682 3 2 ack 40 ------- 0 3.0 2.0 19 51
r 1.090765 2 3 tcp 1040 ------- 0 2.0 3.0 20 36
+ 1.090765 3 2 ack 40 ------- 0 3.0 2.0 20 52
- 1.090765 3 2 ack 40 ------- 0 3.0 2.0 20 52
r 1.090848 2 3 tcp 1040 ------- 0 2.0 3.0 21 37
+ 1.090848 3 2 ack 40 ------- 0 3.0 2.0 21 53
- 1.090848 3 2 ack 40 ------- 0 3.0 2.0 21 53
r 1.090931 2 3 tcp 1040 ------- 0 2.0 3.0 22 38
+ 1.090931 3 2 ack 40 ------- 0 3.0 2.0 22 54
- 1.090931 3 2 ack 40 ------- 0 3.0 2.0 22 54
r 1.091014 2 3 tcp 1040 ------- 0 2.0 3.0 23 39
+ 1.091014 3 2 ack 40 ------- 0 3.0 2.0 23 55
- 1.091014 3 2 ack 40 ------- 0 3.0 2.0 23 55
r 1.091098 2 3 tcp 1040 ------- 0 2.0 3.0 24 40
+ 1.091098 3 2 ack 40 ------- 0 3.0 2.0 24 56
- 1.091098 3 2 ack 40 ------- 0 3.0 2.0 24 56
r 1.091181 2 3 tcp 1040 ------- 0 2.0 3.0 25 41
+ 1.091181 3 2 ack 40 ------- 0 3.0 2.0 25 57
- 1.091181 3 2 ack 40 ------- 0 3.0 2.0 25 57
r 1.091264 2 3 tcp 1040 ------- 0 2.0 3.0 26 42
+ 1.091264 3 2 ack 40 ------- 0 3.0 2.0 26 58
- 1.091264 3 2 ack 40 ------- 0 3.0 2.0 26 58
r 1.091347 2 3 tcp 1040 ------- 0 2.0 3.0 27 43
+ 1.091347 3 2 ack 40 ------- 0 3.0 2.0 27 59
- 1.091347 3 2 ack 40 ------- 0 3.0 2.0 27 59
r 1.09143 2 3 tcp 1040 ------- 0 2.0 3.0 28 44
+ 1.09143 3 2 ack 40 ------- 0 3.0 2.0 28 60
- 1.09143 3 2 ack 40 ------- 0 3.0 2.0 28 60
r 1.091514 2 3 tcp 1040 ------- 0 2.0 3.0 29 45
+ 1.091514 3 2 ack 40 ------- 0 3.0 2.0 29 61
- 1.091514 3 2 ack 40 ------- 0 3.0 2.0 29 61
r 1.091597 2 3 tcp 1040 ------- 0 2.0 3.0 30 46
+ 1.091597 3 2 ack 40 ------- 0 3.0 2.0 30 62
- 1.091597 3 2 ack 40 ------- 0 3.0 2.0 30 62
r 1.10001 6 5 tcp 40 ------- 0 0.0 5.0 0 0
h 1.10001 5 6 ack 40 ------- 0 5.0 0.0 0 63
r 1.100352 3 2 ack 40 ------- 0 3.0 2.0 15 47
+ 1.100352 2 3 tcp 1040 ------- 0 2.0 3.0 31 64
- 1.100352 2 3 tcp 1040 ------- 0 2.0 3.0 31 64
+ 1.100352 2 3 tcp 1040 ------- 0 2.0 3.0 32 65
r 1.100435 3 2 ack 40 ------- 0 3.0 2.0 16 48
+ 1.100435 2 3 tcp 1040 ------- 0 2.0 3.0 33 66
+ 1.100435 2 3 tcp 1040 ------- 0 2.0 3.0 34 67
- 1.100435 2 3 tcp 1040 ------- 0 2.0 3.0 32 65
r 1.100518 3 2 ack 40 ------- 0 3.0 2.0 17 49
+ 1.100518 2 3 tcp 1040 ------- 0 2.0 3.0 35 68
+ 1.100518 2 3 tcp 1040 ------- 0 2.0 3.0 36 69
- 1.100518 2 3 tcp 1040 ------- 0 2.0 3.0 33 66
r 1.100602 3 2 ack 40 ------- 0 3.0 2.0 18 50
+ 1.100602 2 3 tcp 1040 ------- 0 2.0 3.0 37 70
+ 1.100602 2 3 tcp 1040 ------- 0 2.0 3.0 38 71
- 1.100602 2 3 tcp 1040 ------- 0 2.0 3.0 34 67
r 1.100685 3 2 ack 40 ------- 0 3.0 2.0 19 51
+ 1.100685 2 3 tcp 1040 ------- 0 2.0 3.0 39 72
- 1.100685 2 3 tcp 1040 ------- 0 2.0 3.0 35 68
r 1.100768 3 2 ack 40 ------- 0 3.0 2.0 20 52
+ 1.100768 2 3 tcp 1040 ------- 0 2.0 3.0 40 73
- 1.100768 2 3 tcp 1040 ------- 0 2.0 3.0 36 69
r 1.100851 3 2 ack 40 ------- 0 3.0 2.0 21 53
+ 1.100851 2 3 tcp 1040 ------- 0 2.0 3.0 41 74
- 1.100851 2 3 tcp 1040 ------- 0 2.0 3.0 37 70
r 1.100934 3 2 ack 40 ------- 0 3.0 2.0 22 54
+ 1.100934 2 3 tcp 1040 ------- 0 2.0 3.0 42 75
- 1.100934 2 3 tcp 1040 ------- 0 2.0 3.0 38 71
r 1.101018 3 2 ack 40 ------- 0 3.0 2.0 23 55
+ 1.101018 2 3 tcp 1040 ------- 0 2.0 3.0 43 76
- 1.101018 2 3 tcp 1040 ------- 0 2.0 3.0 39 72
r 1.101101 3 2 ack 40 ------- 0 3.0 2.0 24 56
+ 1.101101 2 3 tcp 1040 ------- 0 2.0 3.0 44 77
- 1.101101 2 3 tcp 1040 ------- 0 2.0 3.0 40 73
r 1.101184 3 2 ack 40 ------- 0 3.0 2.0 25 57
+ 1.101184 2 3 tcp 1040 ------- 0 2.0 3.0 45 78
- 1.101184 2 3 tcp 1040 ------- 0 2.0 3.0 41 74
r 1.101267 3 2 ack 40 ------- 0 3.0 2.0 26 58
+ 1.101267 2 3 tcp 1040 ------- 0 2.0 3.0 46 79
- 1.101267 2 3 tcp 1040 ------- 0 2.0 3.0 42 75
r 1.10135 3 2 ack 40 ------- 0 3.0 2.0 27 59
+ 1.10135 2 3 tcp 1040 ------- 0 2.0 3.0 47 80
- 1.10135 2 3 tcp 1040 ------- 0 2.0 3.0 43 76
r 1.101434 3 2 ack 40 ------- 0 3.0 2.0 28 60
+ 1.101434 2 3 tcp 1040 ------- 0 2.0 3.0 48 81
- 1.101434 2 3 tcp 1040 ------- 0 2.0 3.0 44 77
r 1.101517 3 2 ack 40 ------- 0 3.0 2.0 29 61
+ 1.101517 2 3 tcp 1040 ------- 0 2.0 3.0 49 82
- 1.101517 2 3 tcp 1040 ------- 0 2.0 3.0 45 78
r 1.1016 3 2 ack 40 ------- 0 3.0 2.0 30 62
+ 1.1016 2 3 tcp 1040 ------- 0 2.0 3.0 50 83
- 1.1016 2 3 tcp 1040 ------- 0 2.0 3.0 46 79
- 1.101683 2 3 tcp 1040 ------- 0 2.0 3.0 47 80
- 1.101766 2 3 tcp 1040 ------- 0 2.0 3.0 48 81
- 1.10185 2 3 tcp 1040 ------- 0 2.0 3.0 49 82
- 1.101933 2 3 tcp 1040 ------- 0 2.0 3.0 50 83
r 1.110435 2 3 tcp 1040 ------- 0 2.0 3.0 31 64
+ 1.110435 3 2 ack 40 ------- 0 3.0 2.0 31 84
- 1.110435 3 2 ack 40 ------- 0 3.0 2.0 31 84
r 1.110518 2 3 tcp 1040 ------- 0 2.0 3.0 32 65
+ 1.110518 3 2 ack 40 ------- 0 3.0 2.0 32 85
- 1.110518 3 2 ack 40 ------- 0 3.0 2.0 32 85
r 1.110602 2 3 tcp 1040 ------- 0 2.0 3.0 33 66
+ 1.110602 3 2 ack 40 ------- 0 3.0 2.0 33 86
- 1.110602 3 2 ack 40 ------- 0 3.0 2.0 33 86
r 1.110685 2 3 tcp 1040 ------- 0 2.0 3.0 34 67
+ 1.110685 3 2 ack 40 ------- 0 3.0 2.0 34 87
- 1.110685 3 2 ack 40 ------- 0 3.0 2.0 34 87
r 1.110768 2 3 tcp 1040 ------- 0 2.0 3.0 35 68
+ 1.110768 3 2 ack 40 ------- 0 3.0 2.0 35 88
- 1.110768 3 2 ack 40 ------- 0 3.0 2.0 35 88
r 1.110851 2 3 tcp 1040 ------- 0 2.0 3.0 36 69
+ 1.110851 3 2 ack 40 ------- 0 3.0 2.0 36 89
- 1.110851 3 2 ack 40 ------- 0 3.0 2.0 36 89
r 1.110934 2 3 tcp 1040 ------- 0 2.0 3.0 37 70
+ 1.110934 3 2 ack 40 ------- 0 3.0 2.0 37 90
- 1.110934 3 2 ack 40 ------- 0 3.0 2.0 37 90
r 1.111018 2 3 tcp 1040 ------- 0 2.0 3.0 38 71
+ 1.111018 3 2 ack 40 ------- 0 3.0 2.0 38 91
- 1.111018 3 2 ack 40 ------- 0 3.0 2.0 38 91
r 1.111101 2 3 tcp 1040 ------- 0 2.0 3.0 39 72
+ 1.111101 3 2 ack 40 ------- 0 3.0 2.0 39 92
- 1.111101 3 2 ack 40 ------- 0 3.0 2.0 39 92
r 1.111184 2 3 tcp 1040 ------- 0 2.0 3.0 40 73
+ 1.111184 3 2 ack 40 ------- 0 3.0 2.0 40 93
- 1.111184 3 2 ack 40 ------- 0 3.0 2.0 40 93
r 1.111267 2 3 tcp 1040 ------- 0 2.0 3.0 41 74
+ 1.111267 3 2 ack 40 ------- 0 3.0 2.0 41 94
- 1.111267 3 2 ack 40 ------- 0 3.0 2.0 41 94
r 1.11135 2 3 tcp 1040 ------- 0 2.0 3.0 42 75
+ 1.11135 3 2 ack 40 ------- 0 3.0 2.0 42 95
- 1.11135 3 2 ack 40 ------- 0 3.0 2.0 42 95
r 1.111434 2 3 tcp 1040 ------- 0 2.0 3.0 43 76
+ 1.111434 3 2 ack 40 ------- 0 3.0 2.0 43 96
- 1.111434 3 2 ack 40 ------- 0 3.0 2.0 43 96
r 1.111517 2 3 tcp 1040 ------- 0 2.0 3.0 44 77
+ 1.111517 3 2 ack 40 ------- 0 3.0 2.0 44 97
- 1.111517 3 2 ack 40 ------- 0 3.0 2.0 44 97
r 1.1116 2 3 tcp 1040 ------- 0 2.0 3.0 45 78
+ 1.1116 3 2 ack 40 ------- 0 3.0 2.0 45 98
- 1.1116 3 2 ack 40 ------- 0 3.0 2.0 45 98
r 1.111683 2 3 tcp 1040 ------- 0 2.0 3.0 46 79
+ 1.111683 3 2 ack 40 ------- 0 3.0 2.0 46 99
- 1.111683 3 2 ack 40 ------- 0 3.0 2.0 46 99
r 1.111766 2 3 tcp 1040 ------- 0 2.0 3.0 47 80
+ 1.111766 3 2 ack 40 ------- 0 3.0 2.0 47 100
- 1.111766 3 2 ack 40 ------- 0 3.0 2.0 47 100
r 1.11185 2 3 tcp 1040 ------- 0 2.0 3.0 48 81
+ 1.11185 3 2 ack 40 ------- 0 3.0 2.0 48 101
- 1.11185 3 2 ack 40 ------- 0 3.0 2.0 48 101
r 1.111933 2 3 tcp 1040 ------- 0 2.0 3.0 49 82
+ 1.111933 3 2 ack 40 ------- 0 3.0 2.0 49 102
- 1.111933 3 2 ack 40 ------- 0 3.0 2.0 49 102
r 1.112016 2 3 tcp 1040 ------- 0 2.0 3.0 50 83
+ 1.112016 3 2 ack 40 ------- 0 3.0 2.0 50 103
- 1.112016 3 2 ack 40 ------- 0 3.0 2.0 50 103
r 1.120438 3 2 ack 40 ------- 0 3.0 2.0 31 84
+ 1.120438 2 3 tcp 1040 ------- 0 2.0 3.0 51 104
- 1.120438 2 3 tcp 1040 ------- 0 2.0 3.0 51 104
r 1.120522 3 2 ack 40 ------- 0 3.0 2.0 32 85
+ 1.120522 2 3 tcp 1040 ------- 0 2.0 3.0 52 105
- 1.120522 2 3 tcp 1040 ------- 0 2.0 3.0 52 105
r 1.120605 3 2 ack 40 ------- 0 3.0 2.0 33 86
+ 1.120605 2 3 tcp 1040 ------- 0 2.0 3.0 53 106
- 1.120605 2 3 tcp 1040 ------- 0 2.0 3.0 53 106
r 1.120688 3 2 ack 40 ------- 0 3.0 2.0 34 87
+ 1.120688 2 3 tcp 1040 ------- 0 2.0 3.0 54 107
- 1.120688 2 3 tcp 1040 ------- 0 2.0 3.0 54 107
r 1.120771 3 2 ack 40 ------- 0 3.0 2.0 35 88
+ 1.120771 2 3 tcp 1040 ------- 0 2.0 3.0 55 108
- 1.120771 2 3 tcp 1040 ------- 0 2.0 3.0 55 108
r 1.120854 3 2 ack 40 ------- 0 3.0 2.0 36 89
+ 1.120854 2 3 tcp 1040 ------- 0 2.0 3.0 56 109
- 1.120854 2 3 tcp 1040 ------- 0 2.0 3.0 56 109
r 1.120938 3 2 ack 40 ------- 0 3.0 2.0 37 90
+ 1.120938 2 3 tcp 1040 ------- 0 2.0 3.0 57 110
- 1.120938 2 3 tcp 1040 ------- 0 2.0 3.0 57 110
r 1.121021 3 2 ack 40 ------- 0 3.0 2.0 38 91
+ 1.121021 2 3 tcp 1040 ------- 0 2.0 3.0 58 111
- 1.121021 2 3 tcp 1040 ------- 0 2.0 3.0 58 111
r 1.121104 3 2 ack 40 ------- 0 3.0 2.0 39 92
+ 1.121104 2 3 tcp 1040 ------- 0 2.0 3.0 59 112
- 1.121104 2 3 tcp 1040 ------- 0 2.0 3.0 59 112
r 1.121187 3 2 ack 40 ------- 0 3.0 2.0 40 93
+ 1.121187 2 3 tcp 1040 ------- 0 2.0 3.0 60 113
- 1.121187 2 3 tcp 1040 ------- 0 2.0 3.0 60 113
r 1.12127 3 2 ack 40 ------- 0 3.0 2.0 41 94
+ 1.12127 2 3 tcp 1040 ------- 0 2.0 3.0 61 114
- 1.12127 2 3 tcp 1040 ------- 0 2.0 3.0 61 114
r 1.121354 3 2 ack 40 ------- 0 3.0 2.0 42 95
+ 1.121354 2 3 tcp 1040 ------- 0 2.0 3.0 62 115
- 1.121354 2 3 tcp 1040 ------- 0 2.0 3.0 62 115
r 1.121437 3 2 ack 40 ------- 0 3.0 2.0 43 96
+ 1.121437 2 3 tcp 1040 ------- 0 2.0 3.0 63 116
- 1.121437 2 3 tcp 1040 ------- 0 2.0 3.0 63 116
r 1.12152 3 2 ack 40 ------- 0 3.0 2.0 44 97
+ 1.12152 2 3 tcp 1040 ------- 0 2.0 3.0 64 117
- 1.12152 2 3 tcp 1040 ------- 0 2.0 3.0 64 117
r 1.121603 3 2 ack 40 ------- 0 3.0 2.0 45 98
+ 1.121603 2 3 tcp 1040 ------- 0 2.0 3.0 65 118
- 1.121603 2 3 tcp 1040 ------- 0 2.0 3.0 65 118
r 1.121686 3 2 ack 40 ------- 0 3.0 2.0 46 99
+ 1.121686 2 3 tcp 1040 ------- 0 2.0 3.0 66 119
- 1.121686 2 3 tcp 1040 ------- 0 2.0 3.0 66 119
r 1.12177 3 2 ack 40 ------- 0 3.0 2.0 47 100
+ 1.12177 2 3 tcp 1040 ------- 0 2.0 3.0 67 120
- 1.12177 2 3 tcp 1040 ------- 0 2.0 3.0 67 120
r 1.121853 3 2 ack 40 ------- 0 3.0 2.0 48 101
+ 1.121853 2 3 tcp 1040 ------- 0 2.0 3.0 68 121
- 1.121853 2 3 tcp 1040 ------- 0 2.0 3.0 68 121
r 1.121936 3 2 ack 40 ------- 0 3.0 2.0 49 102
+ 1.121936 2 3 tcp 1040 ------- 0 2.0 3.0 69 122
- 1.121936 2 3 tcp 1040 ------- 0 2.0 3.0 69 122
r 1.122019 3 2 ack 40 ------- 0 3.0 2.0 50 103
+ 1.122019 2 3 tcp 1040 ------- 0 2.0 3.0 70 123
- 1.122019 2 3 tcp 1040 ------- 0 2.0 3.0 70 123
r 1.130522 2 3 tcp 1040 ------- 0 2.0 3.0 51 104
+ 1.130522 3 2 ack 40 ------- 0 3.0 2.0 51 124
- 1.130522 3 2 ack 40 ------- 0 3.0 2.0 51 124
r 1.130605 2 3 tcp 1040 ------- 0 2.0 3.0 52 105
+ 1.130605 3 2 ack 40 ------- 0 3.0 2.0 52 125
- 1.130605 3 2 ack 40 ------- 0 3.0 2.0 52 125
r 1.130688 2 3 tcp 1040 ------- 0 2.0 3.0 53 106
+ 1.130688 3 2 ack 40 ------- 0 3.0 2.0 53 126
- 1.130688 3 2 ack 40 ------- 0 3.0 2.0 53 126
r 1.130771 2 3 tcp 1040 ------- 0 2.0 3.0 54 107
+ 1.130771 3 2 ack 40 ------- 0 3.0 2.0 54 127
- 1.130771 3 2 ack 40 ------- 0 3.0 2.0 54 127
r 1.130854 2 3 tcp 1040 ------- 0 2.0 3.0 55 108
+ 1.130854 3 2 ack 40 ------- 0 3.0 2.0 55 128
- 1.130854 3 2 ack 40 ------- 0 3.0 2.0 55 128
r 1.130938 2 3 tcp 1040 ------- 0 2.0 3.0 56 109
+ 1.130938 3 2 ack 40 ------- 0 3.0 2.0 56 129
- 1.130938 3 2 ack 40 ------- 0 3.0 2.0 56 129
r 1.131021 2 3 tcp 1040 ------- 0 2.0 3.0 57 110
+ 1.131021 3 2 ack 40 ------- 0 3.0 2.0 57 130
- 1.131021 3 2 ack 40 ------- 0 3.0 2.0 57 130
r 1.131104 2 3 tcp 1040 ------- 0 2.0 3.0 58 111
+ 1.131104 3 2 ack 40 ------- 0 3.0 2.0 58 131
- 1.131104 3 2 ack 40 ------- 0 3.0 2.0 58 131
r 1.131187 2 3 tcp 1040 ------- 0 2.0 3.0 59 112
+ 1.131187 3 2 ack 40 ------- 0 3.0 2.0 59 132
- 1.131187 3 2 ack 40 ------- 0 3.0 2.0 59 132
r 1.13127 2 3 tcp 1040 ------- 0 2.0 3.0 60 113
+ 1.13127 3 2 ack 40 ------- 0 3.0 2.0 60 133
- 1.13127 3 2 ack 40 ------- 0 3.0 2.0 60 133
r 1.131354 2 3 tcp 1040 ------- 0 2.0 3.0 61 114
+ 1.131354 3 2 ack 40 ------- 0 3.0 2.0 61 134
- 1.131354 3 2 ack 40 ------- 0 3.0 2.0 61 134
r 1.131437 2 3 tcp 1040 ------- 0 2.0 3.0 62 115
+ 1.131437 3 2 ack 40 ------- 0 3.0 2.0 62 135
- 1.131437 3 2 ack 40 ------- 0 3.0 2.0 62 135
r 1.13152 2 3 tcp 1040 ------- 0 2.0 3.0 63 116
+ 1.13152 3 2 ack 40 ------- 0 3.0 2.0 63 136
- 1.13152 3 2 ack 40 ------- 0 3.0 2.0 63 136
r 1.131603 2 3 tcp 1040 ------- 0 2.0 3.0 64 117
+ 1.131603 3 2 ack 40 ------- 0 3.0 2.0 64 137
- 1.131603 3 2 ack 40 ------- 0 3.0 2.0 64 137
r 1.131686 2 3 tcp 1040 ------- 0 2.0 3.0 65 118
+ 1.131686 3 2 ack 40 ------- 0 3.0 2.0 65 138
- 1.131686 3 2 ack 40 ------- 0 3.0 2.0 65 138
r 1.13177 2 3 tcp 1040 ------- 0 2.0 3.0 66 119
+ 1.13177 3 2 ack 40 ------- 0 3.0 2.0 66 139
- 1.13177 3 2 ack 40 ------- 0 3.0 2.0 66 139
r 1.131853 2 3 tcp 1040 ------- 0 2.0 3.0 67 120
+ 1.131853 3 2 ack 40 ------- 0 3.0 2.0 67 140
- 1.131853 3 2 ack 40 ------- 0 3.0 2.0 67 140
r 1.131936 2 3 tcp 1040 ------- 0 2.0 3.0 68 121
+ 1.131936 3 2 ack 40 ------- 0 3.0 2.0 68 141
- 1.131936 3 2 ack 40 ------- 0 3.0 2.0 68 141
r 1.132019 2 3 tcp 1040 ------- 0 2.0 3.0 69 122
+ 1.132019 3 2 ack 40 ------- 0 3.0 2.0 69 142
- 1.132019 3 2 ack 40 ------- 0 3.0 2.0 69 142
r 1.132102 2 3 tcp 1040 ------- 0 2.0 3.0 70 123
+ 1.132102 3 2 ack 40 ------- 0 3.0 2.0 70 143
- 1.132102 3 2 ack 40 ------- 0 3.0 2.0 70 143
+ 1.14001 5 6 ack 40 ------- 0 5.0 0.0 0 63
- 1.14001 5 6 ack 40 ------- 0 5.0 0.0 0 63
d 1.140014 4 6 ack 40 ------- 0 5.0 0.0 0 63
r 1.140525 3 2 ack 40 ------- 0 3.0 2.0 51 124
+ 1.140525 2 3 tcp 1040 ------- 0 2.0 3.0 71 144
- 1.140525 2 3 tcp 1040 ------- 0 2.0 3.0 71 144
r 1.140608 3 2 ack 40 ------- 0 3.0 2.0 52 125
+ 1.140608 2 3 tcp 1040 ------- 0 2.0 3.0 72 145
- 1.140608 2 3 tcp 1040 ------- 0 2.0 3.0 72 145
r 1.140691 3 2 ack 40 ------- 0 3.0 2.0 53 126
+ 1.140691 2 3 tcp 1040 ------- 0 2.0 3.0 73 146
- 1.140691 2 3 tcp 1040 ------- 0 2.0 3.0 73 146
r 1.140774 3 2 ack 40 ------- 0 3.0 2.0 54 127
+ 1.140774 2 3 tcp 1040 ------- 0 2.0 3.0 74 147
- 1.140774 2 3 tcp 1040 ------- 0 2.0 3.0 74 147
r 1.140858 3 2 ack 40 ------- 0 3.0 2.0 55 128
+ 1.140858 2 3 tcp 1040 ------- 0 2.0 3.0 75 148
- 1.140858 2 3 tcp 1040 ------- 0 2.0 3.0 75 148
r 1.140941 3 2 ack 40 ------- 0 3.0 2.0 56 129
+ 1.140941 2 3 tcp 1040 ------- 0 2.0 3.0 76 149
- 1.140941 2 3 tcp 1040 ------- 0 2.0 3.0 76 149
r 1.141024 3 2 ack 40 ------- 0 3.0 2.0 57 130
+ 1.141024 2 3 tcp 1040 ------- 0 2.0 3.0 77 150
- 1.141024 2 3 tcp 1040 ------- 0 2.0 3.0 77 150
r 1.141107 3 2 ack 40 ------- 0 3.0 2.0 58 131
+ 1.141107 2 3 tcp 1040 ------- 0 2.0 3.0 78 151
- 1.141107 2 3 tcp 1040 ------- 0 2.0 3.0 78 151
r 1.14119 3 2 ack 40 ------- 0 3.0 2.0 59 132
+ 1.14119 2 3 tcp 1040 ------- 0 2.0 3.0 79 152
- 1.14119 2 3 tcp 1040 ------- 0 2.0 3.0 79 152
r 1.141274 3 2 ack 40 ------- 0 3.0 2.0 60 133
+ 1.141274 2 3 tcp 1040 ------- 0 2.0 3.0 80 153
- 1.141274 2 3 tcp 1040 ------- 0 2.0 3.0 80 153
r 1.141357 3 2 ack 40 ------- 0 3.0 2.0 61 134
+ 1.141357 2 3 tcp 1040 ------- 0 2.0 3.0 81 154
- 1.141357 2 3 tcp 1040 ------- 0 2.0 3.0 81 154
r 1.14144 3 2 ack 40 ------- 0 3.0 2.0 62 135
+ 1.14144 2 3 tcp 1040 ------- 0 2.0 3.0 82 155
- 1.14144 2 3 tcp 1040 ------- 0 2.0 3.0 82 155
r 1.141523 3 2 ack 40 ------- 0 3.0 2.0 63 136
+ 1.141523 2 3 tcp 1040 ------- 0 2.0 3.0 83 156
- 1.141523 2 3 tcp 1040 ------- 0 2.0 3.0 83 156
r 1.141606 3 2 ack 40 ------- 0 3.0 2.0 64 137
+ 1.141606 2 3 tcp 1040 ------- 0 2.0 3.0 84 157
- 1.141606 2 3 tcp 1040 ------- 0 2.0 3.0 84 157
r 1.14169 3 2 ack 40 ------- 0 3.0 2.0 65 138
+ 1.14169 2 3 tcp 1040 ------- 0 2.0 3.0 85 158
- 1.14169 2 3 tcp 1040 ------- 0 2.0 3.0 85 158
r 1.141773 3 2 ack 40 ------- 0 3.0 2.0 66 139
+ 1.141773 2 3 tcp 1040 ------- 0 2.0 3.0 86 159
- 1.141773 2 3 tcp 1040 ------- 0 2.0 3.0 86 159
r 1.141856 3 2 ack 40 ------- 0 3.0 2.0 67 140
+ 1.141856 2 3 tcp 1040 ------- 0 2.0 3.0 87 160
- 1.141856 2 3 tcp 1040 ------- 0 2.0 3.0 87 160
r 1.141939 3 2 ack 40 ------- 0 3.0 2.0 68 141
+ 1.141939 2 3 tcp 1040 ------- 0 2.0 3.0 88 161
- 1.141939 2 3 tcp 1040 ------- 0 2.0 3.0 88 161
r 1.142022 3 2 ack 40 ------- 0 3.0 2.0 69 142
+ 1.142022 2 3 tcp 1040 ------- 0 2.0 3.0 89 162
- 1.142022 2 3 tcp 1040 ------- 0 2.0 3.0 89 162
r 1.142106 3 2 ack 40 ------- 0 3.0 2.0 70 143
+ 1.142106 2 3 tcp 1040 ------- 0 2.0 3.0 90 163
- 1.142106 2 3 tcp 1040 ------- 0 2.0 3.0 90 163
r 1.150608 2 3 tcp 1040 ------- 0 2.0 3.0 71 144
+ 1.150608 3 2 ack 40 ------- 0 3.0 2.0 71 164
- 1.150608 3 2 ack 40 ------- 0 3.0 2.0 71 164
r 1.150691 2 3 tcp 1040 ------- 0 2.0 3.0 72 145
+ 1.150691 3 2 ack 40 ------- 0 3.0 2.0 72 165
- 1.150691 3 2 ack 40 ------- 0 3.0 2.0 72 165
r 1.150774 2 3 tcp 1040 ------- 0 2.0 3.0 73 146
+ 1.150774 3 2 ack 40 ------- 0 3.0 2.0 73 166
- 1.150774 3 2 ack 40 ------- 0 3.0 2.0 73 166
r 1.150858 2 3 tcp 1040 ------- 0 2.0 3.0 74 147
+ 1.150858 3 2 ack 40 ------- 0 3.0 2.0 74 167
- 1.150858 3 2 ack 40 ------- 0 3.0 2.0 74 167
r 1.150941 2 3 tcp 1040 ------- 0 2.0 3.0 75 148
+ 1.150941 3 2 ack 40 ------- 0 3.0 2.0 75 168
- 1.150941 3 2 ack 40 ------- 0 3.0 2.0 75 168
r 1.151024 2 3 tcp 1040 ------- 0 2.0 3.0 76 149
+ 1.151024 3 2 ack 40 ------- 0 3.0 2.0 76 169
- 1.151024 3 2 ack 40 ------- 0 3.0 2.0 76 169
r 1.151107 2 3 tcp 1040 ------- 0 2.0 3.0 77 150
+ 1.151107 3 2 ack 40 ------- 0 3.0 2.0 77 170
- 1.151107 3 2 ack 40 ------- 0 3.0 2.0 77 170
r 1.15119 2 3 tcp 1040 ------- 0 2.0 3.0 78 151
+ 1.15119 3 2 ack 40 ------- 0 3.0 2.0 78 171
- 1.15119 3 2 ack 40 ------- 0 3.0 2.0 78 171
r 1.151274 2 3 tcp 1040 ------- 0 2.0 3.0 79 152
+ 1.151274 3 2 ack 40 ------- 0 3.0 2.0 79 172
- 1.151274 3 2 ack 40 ------- 0 3.0 2.0 79 172
r 1.151357 2 3 tcp 1040 ------- 0 2.0 3.0 80 153
+ 1.151357 3 2 ack 40 ------- 0 3.0 2.0 80 173
- 1.151357 3 2 ack 40 ------- 0 3.0 2.0 80 173
r 1.15144 2 3 tcp 1040 ------- 0 2.0 3.0 81 154
+ 1.15144 3 2 ack 40 ------- 0 3.0 2.0 81 174
- 1.15144 3 2 ack 40 ------- 0 3.0 2.0 81 174
r 1.151523 2 3 tcp 1040 ------- 0 2.0 3.0 82 155
+ 1.151523 3 2 ack 40 ------- 0 3.0 2.0 82 175
- 1.151523 3 2 ack 40 ------- 0 3.0 2.0 82 175
r 1.151606 2 3 tcp 1040 ------- 0 2.0 3.0 83 156
+ 1.151606 3 2 ack 40 ------- 0 3.0 2.0 83 176
- 1.151606 3 2 ack 40 ------- 0 3.0 2.0 83 176
r 1.15169 2 3 tcp 1040 ------- 0 2.0 3.0 84 157
+ 1.15169 3 2 ack 40 ------- 0 3.0 2.0 84 177
- 1.15169 3 2 ack 40 ------- 0 3.0 2.0 84 177
r 1.151773 2 3 tcp 1040 ------- 0 2.0 3.0 85 158
+ 1.151773 3 2 ack 40 ------- 0 3.0 2.0 85 178
- 1.151773 3 2 ack 40 ------- 0 3.0 2.0 85 178
r 1.151856 2 3 tcp 1040 ------- 0 2.0 3.0 86 159
+ 1.151856 3 2 ack 40 ------- 0 3.0 2.0 86 179
- 1.151856 3 2 ack 40 ------- 0 3.0 2.0 86 179
r 1.151939 2 3 tcp 1040 ------- 0 2.0 3.0 87 160
+ 1.151939 3 2 ack 40 ------- 0 3.0 2.0 87 180
- 1.151939 3 2 ack 40 ------- 0 3.0 2.0 87 180
r 1.152022 2 3 tcp 1040 ------- 0 2.0 3.0 88 161
+ 1.152022 3 2 ack 40 ------- 0 3.0 2.0 88 181
- 1.152022 3 2 ack 40 ------- 0 3.0 2.0 88 181
r 1.152106 2 3 tcp 1040 ------- 0 2.0 3.0 89 162
+ 1.152106 3 2 ack 40 ------- 0 3.0 2.0 89 182
- 1.152106 3 2 ack 40 ------- 0 3.0 2.0 89 182
r 1.152189 2 3 tcp 1040 ------- 0 2.0 3.0 90 163
+ 1.152189 3 2 ack 40 ------- 0 3.0 2.0 90 183
- 1.152189 3 2 ack 40 ------- 0 3.0 2.0 90 183
r 1.160611 3 2 ack 40 ------- 0 3.0 2.0 71 164
+ 1.160611 2 3 tcp 1040 ------- 0 2.0 3.0 91 184
- 1.160611 2 3 tcp 1040 ------- 0 2.0 3.0 91 184
r 1.160694 3 2 ack 40 ------- 0 3.0 2.0 72 165
+ 1.160694 2 3 tcp 1040 ------- 0 2.0 3.0 92 185
- 1.160694 2 3 tcp 1040 ------- 0 2.0 3.0 92 185
r 1.160778 3 2 ack 40 ------- 0 3.0 2.0 73 166
+ 1.160778 2 3 tcp 1040 ------- 0 2.0 3.0 93 186
- 1.160778 2 3 tcp 1040 ------- 0 2.0 3.0 93 186
r 1.160861 3 2 ack 40 ------- 0 3.0 2.0 74 167
+ 1.160861 2 3 tcp 1040 ------- 0 2.0 3.0 94 187
- 1.160861 2 3 tcp 1040 ------- 0 2.0 3.0 94 187
r 1.160944 3 2 ack 40 ------- 0 3.0 2.0 75 168
+ 1.160944 2 3 tcp 1040 ------- 0 2.0 3.0 95 188
- 1.160944 2 3 tcp 1040 ------- 0 2.0 3.0 95 188
r 1.161027 3 2 ack 40 ------- 0 3.0 2.0 76 169
+ 1.161027 2 3 tcp 1040 ------- 0 2.0 3.0 96 189
- 1.161027 2 3 tcp 1040 ------- 0 2.0 3.0 96 189
r 1.16111 3 2 ack 40 ------- 0 3.0 2.0 77 170
+ 1.16111 2 3 tcp 1040 ------- 0 2.0 3.0 97 190
- 1.16111 2 3 tcp 1040 ------- 0 2.0 3.0 97 190
r 1.161194 3 2 ack 40 ------- 0 3.0 2.0 78 171
+ 1.161194 2 3 tcp 1040 ------- 0 2.0 3.0 98 191
- 1.161194 2 3 tcp 1040 ------- 0 2.0 3.0 98 191
r 1.161277 3 2 ack 40 ------- 0 3.0 2.0 79 172
+ 1.161277 2 3 tcp 1040 ------- 0 2.0 3.0 99 192
- 1.161277 2 3 tcp 1040 ------- 0 2.0 3.0 99 192
r 1.16136 3 2 ack 40 ------- 0 3.0 2.0 80 173
+ 1.16136 2 3 tcp 1040 ------- 0 2.0 3.0 100 193
- 1.16136 2 3 tcp 1040 ------- 0 2.0 3.0 100 193
r 1.161443 3 2 ack 40 ------- 0 3.0 2.0 81 174
+ 1.161443 2 3 tcp 1040 ------- 0 2.0 3.0 101 194
- 1.161443 2 3 tcp 1040 ------- 0 2.0 3.0 101 194
r 1.161526 3 2 ack 40 ------- 0 3.0 2.0 82 175
+ 1.161526 2 3 tcp 1040 ------- 0 2.0 3.0 102 195
- 1.161526 2 3 tcp 1040 ------- 0 2.0 3.0 102 195
r 1.16161 3 2 ack 40 ------- 0 3.0 2.0 83 176
+ 1.16161 2 3 tcp 1040 ------- 0 2.0 3.0 103 196
- 1.16161 2 3 tcp 1040 ------- 0 2.0 3.0 103 196
r 1.161693 3 2 ack 40 ------- 0 3.0 2.0 84 177
+ 1.161693 2 3 tcp 1040 ------- 0 2.0 3.0 104 197
- 1.161693 2 3 tcp 1040 ------- 0 2.0 3.0 104 197
r 1.161776 3 2 ack 40 ------- 0 3.0 2.0 85 178
+ 1.161776 2 3 tcp 1040 ------- 0 2.0 3.0 105 198
- 1.161776 2 3 tcp 1040 ------- 0 2.0 3.0 105 198
r 1.161859 3 2 ack 40 ------- 0 3.0 2.0 86 179
+ 1.161859 2 3 tcp 1040 ------- 0 2.0 3.0 106 199
- 1.161859 2 3 tcp 1040 ------- 0 2.0 3.0 106 199
r 1.161942 3 2 ack 40 ------- 0 3.0 2.0 87 180
+ 1.161942 2 3 tcp 1040 ------- 0 2.0 3.0 107 200
- 1.161942 2 3 tcp 1040 ------- 0 2.0 3.0 107 200
r 1.162026 3 2 ack 40 ------- 0 3.0 2.0 88 181
+ 1.162026 2 3 tcp 1040 ------- 0 2.0 3.0 108 201
- 1.162026 2 3 tcp 1040 ------- 0 2.0 3.0 108 201
r 1.162109 3 2 ack 40 ------- 0 3.0 2.0 89 182
+ 1.162109 2 3 tcp 1040 ------- 0 2.0 3.0 109 202
- 1.162109 2 3 tcp 1040 ------- 0 2.0 3.0 109 202
r 1.162192 3 2 ack 40 ------- 0 3.0 2.0 90 183
+ 1.162192 2 3 tcp 1040 ------- 0 2.0 3.0 110 203
- 1.162192 2 3 tcp 1040 ------- 0 2.0 3.0 110 203
r 1.170694 2 3 tcp 1040 ------- 0 2.0 3.0 91 184
+ 1.170694 3 2 ack 40 ------- 0 3.0 2.0 91 204
- 1.170694 3 2 ack 40 ------- 0 3.0 2.0 91 204
r 1.170778 2 3 tcp 1040 ------- 0 2.0 3.0 92 185
+ 1.170778 3 2 ack 40 ------- 0 3.0 2.0 92 205
- 1.170778 3 2 ack 40 ------- 0 3.0 2.0 92 205
r 1.170861 2 3 tcp 1040 ------- 0 2.0 3.0 93 186
+ 1.170861 3 2 ack 40 ------- 0 3.0 2.0 93 206
- 1.170861 3 2 ack 40 ------- 0 3.0 2.0 93 206
r 1.170944 2 3 tcp 1040 ------- 0 2.0 3.0 94 187
+ 1.170944 3 2 ack 40 ------- 0 3.0 2.0 94 207
- 1.170944 3 2 ack 40 ------- 0 3.0 2.0 94 207
r 1.171027 2 3 tcp 1040 ------- 0 2.0 3.0 95 188
+ 1.171027 3 2 ack 40 ------- 0 3.0 2.0 95 208
- 1.171027 3 2 ack 40 ------- 0 3.0 2.0 95 208
r 1.17111 2 3 tcp 1040 ------- 0 2.0 3.0 96 189
+ 1.17111 3 2 ack 40 ------- 0 3.0 2.0 96 209
- 1.17111 3 2 ack 40 ------- 0 3.0 2.0 96 209
r 1.171194 2 3 tcp 1040 ------- 0 2.0 3.0 97 190
+ 1.171194 3 2 ack 40 ------- 0 3.0 2.0 97 210
- 1.171194 3 2 ack 40 ------- 0 3.0 2.0 97 210
r 1.171277 2 3 tcp 1040 ------- 0 2.0 3.0 98 191
+ 1.171277 3 2 ack 40 ------- 0 3.0 2.0 98 211
- 1.171277 3 2 ack 40 ------- 0 3.0 2.0 98 211
r 1.17136 2 3 tcp 1040 ------- 0 2.0 3.0 99 192
+ 1.17136 3 2 ack 40 ------- 0 3.0 2.0 99 212
- 1.17136 3 2 ack 40 ------- 0 3.0 2.0 99 212
r 1.171443 2 3 tcp 1040 ------- 0 2.0 3.0 100 193
+ 1.171443 3 2 ack 40 ------- 0 3.0 2.0 100 213
- 1.171443 3 2 ack 40 ------- 0 3.0 2.0 100 213
r 1.171526 2 3 tcp 1040 ------- 0 2.0 3.0 101 194
+ 1.171526 3 2 ack 40 ------- 0 3.0 2.0 101 214
- 1.171526 3 2 ack 40 ------- 0 3.0 2.0 101 214
r 1.17161 2 3 tcp 1040 ------- 0 2.0 3.0 102 195