V -t * -v 1.0a5 -a 0
A -t * -n 1 -p 0 -o 0x7fffffff -c 30 -a 1
A -t * -h 1 -m 1073741823 -s 0
c -t * -i 1 -n Red
c -t * -i 2 -n Blue
n -t * -a 4 -s 4 -S UP -v circle -c black -i black
n -t * -a 0 -s 0 -S UP -v circle -c black -i black
n -t * -a 1 -s 1 -S UP -v circle -c black -i black
n -t * -a 2 -s 2 -S UP -v circle -c black -i black
n -t * -a 3 -s 3 -S UP -v circle -c black -i black
l -t * -s 0 -d 4 -S UP -r 1000000 -D 0.01 -c black -o right-down
l -t * -s 4 -d 3 -S UP -r 1000000 -D 0.01 -c black -o right-down
l -t * -s 1 -d 4 -S UP -r 1000000 -D 0.01 -c black -o left-down
l -t * -s 4 -d 2 -S UP -r 1000000 -D 0.01 -c black -o left-down
+ -t 0 -s 0 -d 4 -p tcp -e 40 -c 2 -i 0 -a 2 -x {0.0 3.0 0 ------- null}
- -t 0 -s 0 -d 4 -p tcp -e 40 -c 2 -i 0 -a 2 -x {0.0 3.0 0 ------- null}
h -t 0 -s 0 -d 4 -p tcp -e 40 -c 2 -i 0 -a 2 -x {0.0 3.0 -1 ------- null}
+ -t 0 -s 1 -d 4 -p cbr -e 500 -c 1 -i 1 -a 1 -x {1.0 2.0 0 ------- null}
- -t 0 -s 1 -d 4 -p cbr -e 500 -c 1 -i 1 -a 1 -x {1.0 2.0 0 ------- null}
h -t 0 -s 1 -d 4 -p cbr -e 500 -c 1 -i 1 -a 1 -x {1.0 2.0 -1 ------- null}
+ -t 0.005 -s 1 -d 4 -p cbr -e 500 -c 1 -i 2 -a 1 -x {1.0 2.0 1 ------- null}
- -t 0.005 -s 1 -d 4 -p cbr -e 500 -c 1 -i 2 -a 1 -x {1.0 2.0 1 ------- null}
h -t 0.005 -s 1 -d 4 -p cbr -e 500 -c 1 -i 2 -a 1 -x {1.0 2.0 -1 ------- null}
+ -t 0.01 -s 1 -d 4 -p cbr -e 500 -c 1 -i 3 -a 1 -x {1.0 2.0 2 ------- null}
- -t 0.01 -s 1 -d 4 -p cbr -e 500 -c 1 -i 3 -a 1 -x {1.0 2.0 2 ------- null}
h -t 0.01 -s 1 -d 4 -p cbr -e 500 -c 1 -i 3 -a 1 -x {1.0 2.0 -1 ------- null}
r -t 0.01032 -s 0 -d 4 -p tcp -e 40 -c 2 -i 0 -a 2 -x {0.0 3.0 0 ------- null}
+ -t 0.01032 -s 4 -d 3 -p tcp -e 40 -c 2 -i 0 -a 2 -x {0.0 3.0 0 ------- null}
- -t 0.01032 -s 4 -d 3 -p tcp -e 40 -c 2 -i 0 -a 2 -x {0.0 3.0 0 ------- null}
h -t 0.01032 -s 4 -d 3 -p tcp -e 40 -c 2 -i 0 -a 2 -x {0.0 3.0 -1 ------- null}
r -t 0.014 -s 1 -d 4 -p cbr -e 500 -c 1 -i 1 -a 1 -x {1.0 2.0 0 ------- null}
+ -t 0.014 -s 4 -d 2 -p cbr -e 500 -c 1 -i 1 -a 1 -x {1.0 2.0 0 ------- null}
- -t 0.014 -s 4 -d 2 -p cbr -e 500 -c 1 -i 1 -a 1 -x {1.0 2.0 0 ------- null}
h -t 0.014 -s 4 -d 2 -p cbr -e 500 -c 1 -i 1 -a 1 -x {1.0 2.0 -1 ------- null}
+ -t 0.015 -s 1 -d 4 -p cbr -e 500 -c 1 -i 4 -a 1 -x {1.0 2.0 3 ------- null}
- -t 0.015 -s 1 -d 4 -p cbr -e 500 -c 1 -i 4 -a 1 -x {1.0 2.0 3 ------- null}
h -t 0.015 -s 1 -d 4 -p cbr -e 500 -c 1 -i 4 -a 1 -x {1.0 2.0 -1 ------- null}
r -t 0.019 -s 1 -d 4 -p cbr -e 500 -c 1 -i 2 -a 1 -x {1.0 2.0 1 ------- null}
+ -t 0.019 -s 4 -d 2 -p cbr -e 500 -c 1 -i 2 -a 1 -x {1.0 2.0 1 ------- null}
- -t 0.019 -s 4 -d 2 -p cbr -e 500 -c 1 -i 2 -a 1 -x {1.0 2.0 1 ------- null}
h -t 0.019 -s 4 -d 2 -p cbr -e 500 -c 1 -i 2 -a 1 -x {1.0 2.0 -1 ------- null}
+ -t 0.02 -s 1 -d 4 -p cbr -e 500 -c 1 -i 5 -a 1 -x {1.0 2.0 4 ------- null}
- -t 0.02 -s 1 -d 4 -p cbr -e 500 -c 1 -i 5 -a 1 -x {1.0 2.0 4 ------- null}
h -t 0.02 -s 1 -d 4 -p cbr -e 500 -c 1 -i 5 -a 1 -x {1.0 2.0 -1 ------- null}
r -t 0.02064 -s 4 -d 3 -p tcp -e 40 -c 2 -i 0 -a 2 -x {0.0 3.0 0 ------- null}
+ -t 0.02064 -s 3 -d 4 -p ack -e 40 -c 2 -i 6 -a 2 -x {3.0 0.0 0 ------- null}
- -t 0.02064 -s 3 -d 4 -p ack -e 40 -c 2 -i 6 -a 2 -x {3.0 0.0 0 ------- null}
h -t 0.02064 -s 3 -d 4 -p ack -e 40 -c 2 -i 6 -a 2 -x {3.0 0.0 -1 ------- null}
r -t 0.024 -s 1 -d 4 -p cbr -e 500 -c 1 -i 3 -a 1 -x {1.0 2.0 2 ------- null}
+ -t 0.024 -s 4 -d 2 -p cbr -e 500 -c 1 -i 3 -a 1 -x {1.0 2.0 2 ------- null}
- -t 0.024 -s 4 -d 2 -p cbr -e 500 -c 1 -i 3 -a 1 -x {1.0 2.0 2 ------- null}
h -t 0.024 -s 4 -d 2 -p cbr -e 500 -c 1 -i 3 -a 1 -x {1.0 2.0 -1 ------- null}
+ -t 0.025 -s 1 -d 4 -p cbr -e 500 -c 1 -i 7 -a 1 -x {1.0 2.0 5 ------- null}
- -t 0.025 -s 1 -d 4 -p cbr -e 500 -c 1 -i 7 -a 1 -x {1.0 2.0 5 ------- null}
h -t 0.025 -s 1 -d 4 -p cbr -e 500 -c 1 -i 7 -a 1 -x {1.0 2.0 -1 ------- null}
r -t 0.028 -s 4 -d 2 -p cbr -e 500 -c 1 -i 1 -a 1 -x {1.0 2.0 0 ------- null}
r -t 0.029 -s 1 -d 4 -p cbr -e 500 -c 1 -i 4 -a 1 -x {1.0 2.0 3 ------- null}
+ -t 0.029 -s 4 -d 2 -p cbr -e 500 -c 1 -i 4 -a 1 -x {1.0 2.0 3 ------- null}
- -t 0.029 -s 4 -d 2 -p cbr -e 500 -c 1 -i 4 -a 1 -x {1.0 2.0 3 ------- null}
h -t 0.029 -s 4 -d 2 -p cbr -e 500 -c 1 -i 4 -a 1 -x {1.0 2.0 -1 ------- null}
+ -t 0.03 -s 1 -d 4 -p cbr -e 500 -c 1 -i 8 -a 1 -x {1.0 2.0 6 ------- null}
- -t 0.03 -s 1 -d 4 -p cbr -e 500 -c 1 -i 8 -a 1 -x {1.0 2.0 6 ------- null}
h -t 0.03 -s 1 -d 4 -p cbr -e 500 -c 1 -i 8 -a 1 -x {1.0 2.0 -1 ------- null}
r -t 0.03096 -s 3 -d 4 -p ack -e 40 -c 2 -i 6 -a 2 -x {3.0 0.0 0 ------- null}
+ -t 0.03096 -s 4 -d 0 -p ack -e 40 -c 2 -i 6 -a 2 -x {3.0 0.0 0 ------- null}
- -t 0.03096 -s 4 -d 0 -p ack -e 40 -c 2 -i 6 -a 2 -x {3.0 0.0 0 ------- null}
h -t 0.03096 -s 4 -d 0 -p ack -e 40 -c 2 -i 6 -a 2 -x {3.0 0.0 -1 ------- null}
r -t 0.033 -s 4 -d 2 -p cbr -e 500 -c 1 -i 2 -a 1 -x {1.0 2.0 1 ------- null}
r -t 0.034 -s 1 -d 4 -p cbr -e 500 -c 1 -i 5 -a 1 -x {1.0 2.0 4 ------- null}
+ -t 0.034 -s 4 -d 2 -p cbr -e 500 -c 1 -i 5 -a 1 -x {1.0 2.0 4 ------- null}
- -t 0.034 -s 4 -d 2 -p cbr -e 500 -c 1 -i 5 -a 1 -x {1.0 2.0 4 ------- null}
h -t 0.034 -s 4 -d 2 -p cbr -e 500 -c 1 -i 5 -a 1 -x {1.0 2.0 -1 ------- null}
+ -t 0.035 -s 1 -d 4 -p cbr -e 500 -c 1 -i 9 -a 1 -x {1.0 2.0 7 ------- null}
- -t 0.035 -s 1 -d 4 -p cbr -e 500 -c 1 -i 9 -a 1 -x {1.0 2.0 7 ------- null}
h -t 0.035 -s 1 -d 4 -p cbr -e 500 -c 1 -i 9 -a 1 -x {1.0 2.0 -1 ------- null}
r -t 0.038 -s 4 -d 2 -p cbr -e 500 -c 1 -i 3 -a 1 -x {1.0 2.0 2 ------- null}
r -t 0.039 -s 1 -d 4 -p cbr -e 500 -c 1 -i 7 -a 1 -x {1.0 2.0 5 ------- null}
+ -t 0.039 -s 4 -d 2 -p cbr -e 500 -c 1 -i 7 -a 1 -x {1.0 2.0 5 ------- null}
- -t 0.039 -s 4 -d 2 -p cbr -e 500 -c 1 -i 7 -a 1 -x {1.0 2.0 5 ------- null}
h -t 0.039 -s 4 -d 2 -p cbr -e 500 -c 1 -i 7 -a 1 -x {1.0 2.0 -1 ------- null}
+ -t 0.04 -s 1 -d 4 -p cbr -e 500 -c 1 -i 10 -a 1 -x {1.0 2.0 8 ------- null}
- -t 0.04 -s 1 -d 4 -p cbr -e 500 -c 1 -i 10 -a 1 -x {1.0 2.0 8 ------- null}
h -t 0.04 -s 1 -d 4 -p cbr -e 500 -c 1 -i 10 -a 1 -x {1.0 2.0 -1 ------- null}
r -t 0.04128 -s 4 -d 0 -p ack -e 40 -c 2 -i 6 -a 2 -x {3.0 0.0 0 ------- null}
+ -t 0.04128 -s 0 -d 4 -p tcp -e 1040 -c 2 -i 11 -a 2 -x {0.0 3.0 1 ------- null}
- -t 0.04128 -s 0 -d 4 -p tcp -e 1040 -c 2 -i 11 -a 2 -x {0.0 3.0 1 ------- null}
h -t 0.04128 -s 0 -d 4 -p tcp -e 1040 -c 2 -i 11 -a 2 -x {0.0 3.0 -1 ------- null}
+ -t 0.04128 -s 0 -d 4 -p tcp -e 1040 -c 2 -i 12 -a 2 -x {0.0 3.0 2 ------- null}
r -t 0.043 -s 4 -d 2 -p cbr -e 500 -c 1 -i 4 -a 1 -x {1.0 2.0 3 ------- null}
r -t 0.044 -s 1 -d 4 -p cbr -e 500 -c 1 -i 8 -a 1 -x {1.0 2.0 6 ------- null}
+ -t 0.044 -s 4 -d 2 -p cbr -e 500 -c 1 -i 8 -a 1 -x {1.0 2.0 6 ------- null}
- -t 0.044 -s 4 -d 2 -p cbr -e 500 -c 1 -i 8 -a 1 -x {1.0 2.0 6 ------- null}
h -t 0.044 -s 4 -d 2 -p cbr -e 500 -c 1 -i 8 -a 1 -x {1.0 2.0 -1 ------- null}
+ -t 0.045 -s 1 -d 4 -p cbr -e 500 -c 1 -i 13 -a 1 -x {1.0 2.0 9 ------- null}
- -t 0.045 -s 1 -d 4 -p cbr -e 500 -c 1 -i 13 -a 1 -x {1.0 2.0 9 ------- null}
h -t 0.045 -s 1 -d 4 -p cbr -e 500 -c 1 -i 13 -a 1 -x {1.0 2.0 -1 ------- null}
r -t 0.048 -s 4 -d 2 -p cbr -e 500 -c 1 -i 5 -a 1 -x {1.0 2.0 4 ------- null}
r -t 0.049 -s 1 -d 4 -p cbr -e 500 -c 1 -i 9 -a 1 -x {1.0 2.0 7 ------- null}
+ -t 0.049 -s 4 -d 2 -p cbr -e 500 -c 1 -i 9 -a 1 -x {1.0 2.0 7 ------- null}
- -t 0.049 -s 4 -d 2 -p cbr -e 500 -c 1 -i 9 -a 1 -x {1.0 2.0 7 ------- null}
h -t 0.049 -s 4 -d 2 -p cbr -e 500 -c 1 -i 9 -a 1 -x {1.0 2.0 -1 ------- null}
- -t 0.0496 -s 0 -d 4 -p tcp -e 1040 -c 2 -i 12 -a 2 -x {0.0 3.0 2 ------- null}
h -t 0.0496 -s 0 -d 4 -p tcp -e 1040 -c 2 -i 12 -a 2 -x {0.0 3.0 -1 ------- null}
+ -t 0.05 -s 1 -d 4 -p cbr -e 500 -c 1 -i 14 -a 1 -x {1.0 2.0 10 ------- null}
- -t 0.05 -s 1 -d 4 -p cbr -e 500 -c 1 -i 14 -a 1 -x {1.0 2.0 10 ------- null}
h -t 0.05 -s 1 -d 4 -p cbr -e 500 -c 1 -i 14 -a 1 -x {1.0 2.0 -1 ------- null}
r -t 0.053 -s 4 -d 2 -p cbr -e 500 -c 1 -i 7 -a 1 -x {1.0 2.0 5 ------- null}
r -t 0.054 -s 1 -d 4 -p cbr -e 500 -c 1 -i 10 -a 1 -x {1.0 2.0 8 ------- null}
+ -t 0.054 -s 4 -d 2 -p cbr -e 500 -c 1 -i 10 -a 1 -x {1.0 2.0 8 ------- null}
- -t 0.054 -s 4 -d 2 -p cbr -e 500 -c 1 -i 10 -a 1 -x {1.0 2.0 8 ------- null}
h -t 0.054 -s 4 -d 2 -p cbr -e 500 -c 1 -i 10 -a 1 -x {1.0 2.0 -1 ------- null}
+ -t 0.055 -s 1 -d 4 -p cbr -e 500 -c 1 -i 15 -a 1 -x {1.0 2.0 11 ------- null}
- -t 0.055 -s 1 -d 4 -p cbr -e 500 -c 1 -i 15 -a 1 -x {1.0 2.0 11 ------- null}
h -t 0.055 -s 1 -d 4 -p cbr -e 500 -c 1 -i 15 -a 1 -x {1.0 2.0 -1 ------- null}
r -t 0.058 -s 4 -d 2 -p cbr -e 500 -c 1 -i 8 -a 1 -x {1.0 2.0 6 ------- null}
r -t 0.059 -s 1 -d 4 -p cbr -e 500 -c 1 -i 13 -a 1 -x {1.0 2.0 9 ------- null}
+ -t 0.059 -s 4 -d 2 -p cbr -e 500 -c 1 -i 13 -a 1 -x {1.0 2.0 9 ------- null}
- -t 0.059 -s 4 -d 2 -p cbr -e 500 -c 1 -i 13 -a 1 -x {1.0 2.0 9 ------- null}
h -t 0.059 -s 4 -d 2 -p cbr -e 500 -c 1 -i 13 -a 1 -x {1.0 2.0 -1 ------- null}
r -t 0.0596 -s 0 -d 4 -p tcp -e 1040 -c 2 -i 11 -a 2 -x {0.0 3.0 1 ------- null}
+ -t 0.0596 -s 4 -d 3 -p tcp -e 1040 -c 2 -i 11 -a 2 -x {0.0 3.0 1 ------- null}
- -t 0.0596 -s 4 -d 3 -p tcp -e 1040 -c 2 -i 11 -a 2 -x {0.0 3.0 1 ------- null}
h -t 0.0596 -s 4 -d 3 -p tcp -e 1040 -c 2 -i 11 -a 2 -x {0.0 3.0 -1 ------- null}
+ -t 0.06 -s 1 -d 4 -p cbr -e 500 -c 1 -i 16 -a 1 -x {1.0 2.0 12 ------- null}
- -t 0.06 -s 1 -d 4 -p cbr -e 500 -c 1 -i 16 -a 1 -x {1.0 2.0 12 ------- null}
h -t 0.06 -s 1 -d 4 -p cbr -e 500 -c 1 -i 16 -a 1 -x {1.0 2.0 -1 ------- null}
r -t 0.063 -s 4 -d 2 -p cbr -e 500 -c 1 -i 9 -a 1 -x {1.0 2.0 7 ------- null}
r -t 0.064 -s 1 -d 4 -p cbr -e 500 -c 1 -i 14 -a 1 -x {1.0 2.0 10 ------- null}
+ -t 0.064 -s 4 -d 2 -p cbr -e 500 -c 1 -i 14 -a 1 -x {1.0 2.0 10 ------- null}
- -t 0.064 -s 4 -d 2 -p cbr -e 500 -c 1 -i 14 -a 1 -x {1.0 2.0 10 ------- null}
h -t 0.064 -s 4 -d 2 -p cbr -e 500 -c 1 -i 14 -a 1 -x {1.0 2.0 -1 ------- null}
+ -t 0.065 -s 1 -d 4 -p cbr -e 500 -c 1 -i 17 -a 1 -x {1.0 2.0 13 ------- null}
- -t 0.065 -s 1 -d 4 -p cbr -e 500 -c 1 -i 17 -a 1 -x {1.0 2.0 13 ------- null}
h -t 0.065 -s 1 -d 4 -p cbr -e 500 -c 1 -i 17 -a 1 -x {1.0 2.0 -1 ------- null}
r -t 0.06792 -s 0 -d 4 -p tcp -e 1040 -c 2 -i 12 -a 2 -x {0.0 3.0 2 ------- null}
+ -t 0.06792 -s 4 -d 3 -p tcp -e 1040 -c 2 -i 12 -a 2 -x {0.0 3.0 2 ------- null}
- -t 0.06792 -s 4 -d 3 -p tcp -e 1040 -c 2 -i 12 -a 2 -x {0.0 3.0 2 ------- null}
h -t 0.06792 -s 4 -d 3 -p tcp -e 1040 -c 2 -i 12 -a 2 -x {0.0 3.0 -1 ------- null}
r -t 0.068 -s 4 -d 2 -p cbr -e 500 -c 1 -i 10 -a 1 -x {1.0 2.0 8 ------- null}
r -t 0.069 -s 1 -d 4 -p cbr -e 500 -c 1 -i 15 -a 1 -x {1.0 2.0 11 ------- null}
+ -t 0.069 -s 4 -d 2 -p cbr -e 500 -c 1 -i 15 -a 1 -x {1.0 2.0 11 ------- null}
- -t 0.069 -s 4 -d 2 -p cbr -e 500 -c 1 -i 15 -a 1 -x {1.0 2.0 11 ------- null}
h -t 0.069 -s 4 -d 2 -p cbr -e 500 -c 1 -i 15 -a 1 -x {1.0 2.0 -1 ------- null}
+ -t 0.07 -s 1 -d 4 -p cbr -e 500 -c 1 -i 18 -a 1 -x {1.0 2.0 14 ------- null}
- -t 0.07 -s 1 -d 4 -p cbr -e 500 -c 1 -i 18 -a 1 -x {1.0 2.0 14 ------- null}
h -t 0.07 -s 1 -d 4 -p cbr -e 500 -c 1 -i 18 -a 1 -x {1.0 2.0 -1 ------- null}
r -t 0.073 -s 4 -d 2 -p cbr -e 500 -c 1 -i 13 -a 1 -x {1.0 2.0 9 ------- null}
r -t 0.074 -s 1 -d 4 -p cbr -e 500 -c 1 -i 16 -a 1 -x {1.0 2.0 12 ------- null}
+ -t 0.074 -s 4 -d 2 -p cbr -e 500 -c 1 -i 16 -a 1 -x {1.0 2.0 12 ------- null}
- -t 0.074 -s 4 -d 2 -p cbr -e 500 -c 1 -i 16 -a 1 -x {1.0 2.0 12 ------- null}
h -t 0.074 -s 4 -d 2 -p cbr -e 500 -c 1 -i 16 -a 1 -x {1.0 2.0 -1 ------- null}
+ -t 0.075 -s 1 -d 4 -p cbr -e 500 -c 1 -i 19 -a 1 -x {1.0 2.0 15 ------- null}
- -t 0.075 -s 1 -d 4 -p cbr -e 500 -c 1 -i 19 -a 1 -x {1.0 2.0 15 ------- null}
h -t 0.075 -s 1 -d 4 -p cbr -e 500 -c 1 -i 19 -a 1 -x {1.0 2.0 -1 ------- null}
r -t 0.07792 -s 4 -d 3 -p tcp -e 1040 -c 2 -i 11 -a 2 -x {0.0 3.0 1 ------- null}
+ -t 0.07792 -s 3 -d 4 -p ack -e 40 -c 2 -i 20 -a 2 -x {3.0 0.0 1 ------- null}
- -t 0.07792 -s 3 -d 4 -p ack -e 40 -c 2 -i 20 -a 2 -x {3.0 0.0 1 ------- null}
h -t 0.07792 -s 3 -d 4 -p ack -e 40 -c 2 -i 20 -a 2 -x {3.0 0.0 -1 ------- null}
r -t 0.078 -s 4 -d 2 -p cbr -e 500 -c 1 -i 14 -a 1 -x {1.0 2.0 10 ------- null}
r -t 0.079 -s 1 -d 4 -p cbr -e 500 -c 1 -i 17 -a 1 -x {1.0 2.0 13 ------- null}
+ -t 0.079 -s 4 -d 2 -p cbr -e 500 -c 1 -i 17 -a 1 -x {1.0 2.0 13 ------- null}
- -t 0.079 -s 4 -d 2 -p cbr -e 500 -c 1 -i 17 -a 1 -x {1.0 2.0 13 ------- null}
h -t 0.079 -s 4 -d 2 -p cbr -e 500 -c 1 -i 17 -a 1 -x {1.0 2.0 -1 ------- null}
+ -t 0.08 -s 1 -d 4 -p cbr -e 500 -c 1 -i 21 -a 1 -x {1.0 2.0 16 ------- null}
- -t 0.08 -s 1 -d 4 -p cbr -e 500 -c 1 -i 21 -a 1 -x {1.0 2.0 16 ------- null}
h -t 0.08 -s 1 -d 4 -p cbr -e 500 -c 1 -i 21 -a 1 -x {1.0 2.0 -1 ------- null}
r -t 0.083 -s 4 -d 2 -p cbr -e 500 -c 1 -i 15 -a 1 -x {1.0 2.0 11 ------- null}
r -t 0.084 -s 1 -d 4 -p cbr -e 500 -c 1 -i 18 -a 1 -x {1.0 2.0 14 ------- null}
+ -t 0.084 -s 4 -d 2 -p cbr -e 500 -c 1 -i 18 -a 1 -x {1.0 2.0 14 ------- null}
- -t 0.084 -s 4 -d 2 -p cbr -e 500 -c 1 -i 18 -a 1 -x {1.0 2.0 14 ------- null}
h -t 0.084 -s 4 -d 2 -p cbr -e 500 -c 1 -i 18 -a 1 -x {1.0 2.0 -1 ------- null}
+ -t 0.085 -s 1 -d 4 -p cbr -e 500 -c 1 -i 22 -a 1 -x {1.0 2.0 17 ------- null}
- -t 0.085 -s 1 -d 4 -p cbr -e 500 -c 1 -i 22 -a 1 -x {1.0 2.0 17 ------- null}
h -t 0.085 -s 1 -d 4 -p cbr -e 500 -c 1 -i 22 -a 1 -x {1.0 2.0 -1 ------- null}
r -t 0.08624 -s 4 -d 3 -p tcp -e 1040 -c 2 -i 12 -a 2 -x {0.0 3.0 2 ------- null}
+ -t 0.08624 -s 3 -d 4 -p ack -e 40 -c 2 -i 23 -a 2 -x {3.0 0.0 2 ------- null}
- -t 0.08624 -s 3 -d 4 -p ack -e 40 -c 2 -i 23 -a 2 -x {3.0 0.0 2 ------- null}
h -t 0.08624 -s 3 -d 4 -p ack -e 40 -c 2 -i 23 -a 2 -x {3.0 0.0 -1 ------- null}
r -t 0.088 -s 4 -d 2 -p cbr -e 500 -c 1 -i 16 -a 1 -x {1.0 2.0 12 ------- null}
r -t 0.08824 -s 3 -d 4 -p ack -e 40 -c 2 -i 20 -a 2 -x {3.0 0.0 1 ------- null}
+ -t 0.08824 -s 4 -d 0 -p ack -e 40 -c 2 -i 20 -a 2 -x {3.0 0.0 1 ------- null}
- -t 0.08824 -s 4 -d 0 -p ack -e 40 -c 2 -i 20 -a 2 -x {3.0 0.0 1 ------- null}
h -t 0.08824 -s 4 -d 0 -p ack -e 40 -c 2 -i 20 -a 2 -x {3.0 0.0 -1 ------- null}
r -t 0.089 -s 1 -d 4 -p cbr -e 500 -c 1 -i 19 -a 1 -x {1.0 2.0 15 ------- null}
+ -t 0.089 -s 4 -d 2 -p cbr -e 500 -c 1 -i 19 -a 1 -x {1.0 2.0 15 ------- null}
- -t 0.089 -s 4 -d 2 -p cbr -e 500 -c 1 -i 19 -a 1 -x {1.0 2.0 15 ------- null}
h -t 0.089 -s 4 -d 2 -p cbr -e 500 -c 1 -i 19 -a 1 -x {1.0 2.0 -1 ------- null}
+ -t 0.09 -s 1 -d 4 -p cbr -e 500 -c 1 -i 24 -a 1 -x {1.0 2.0 18 ------- null}
- -t 0.09 -s 1 -d 4 -p cbr -e 500 -c 1 -i 24 -a 1 -x {1.0 2.0 18 ------- null}
h -t 0.09 -s 1 -d 4 -p cbr -e 500 -c 1 -i 24 -a 1 -x {1.0 2.0 -1 ------- null}
r -t 0.093 -s 4 -d 2 -p cbr -e 500 -c 1 -i 17 -a 1 -x {1.0 2.0 13 ------- null}
r -t 0.094 -s 1 -d 4 -p cbr -e 500 -c 1 -i 21 -a 1 -x {1.0 2.0 16 ------- null}
+ -t 0.094 -s 4 -d 2 -p cbr -e 500 -c 1 -i 21 -a 1 -x {1.0 2.0 16 ------- null}
- -t 0.094 -s 4 -d 2 -p cbr -e 500 -c 1 -i 21 -a 1 -x {1.0 2.0 16 ------- null}
h -t 0.094 -s 4 -d 2 -p cbr -e 500 -c 1 -i 21 -a 1 -x {1.0 2.0 -1 ------- null}
+ -t 0.095 -s 1 -d 4 -p cbr -e 500 -c 1 -i 25 -a 1 -x {1.0 2.0 19 ------- null}
- -t 0.095 -s 1 -d 4 -p cbr -e 500 -c 1 -i 25 -a 1 -x {1.0 2.0 19 ------- null}
h -t 0.095 -s 1 -d 4 -p cbr -e 500 -c 1 -i 25 -a 1 -x {1.0 2.0 -1 ------- null}
r -t 0.09656 -s 3 -d 4 -p ack -e 40 -c 2 -i 23 -a 2 -x {3.0 0.0 2 ------- null}
+ -t 0.09656 -s 4 -d 0 -p ack -e 40 -c 2 -i 23 -a 2 -x {3.0 0.0 2 ------- null}
- -t 0.09656 -s 4 -d 0 -p ack -e 40 -c 2 -i 23 -a 2 -x {3.0 0.0 2 ------- null}
h -t 0.09656 -s 4 -d 0 -p ack -e 40 -c 2 -i 23 -a 2 -x {3.0 0.0 -1 ------- null}
r -t 0.098 -s 4 -d 2 -p cbr -e 500 -c 1 -i 18 -a 1 -x {1.0 2.0 14 ------- null}
r -t 0.09856 -s 4 -d 0 -p ack -e 40 -c 2 -i 20 -a 2 -x {3.0 0.0 1 ------- null}
+ -t 0.09856 -s 0 -d 4 -p tcp -e 1040 -c 2 -i 26 -a 2 -x {0.0 3.0 3 ------- null}
- -t 0.09856 -s 0 -d 4 -p tcp -e 1040 -c 2 -i 26 -a 2 -x {0.0 3.0 3 ------- null}
h -t 0.09856 -s 0 -d 4 -p tcp -e 1040 -c 2 -i 26 -a 2 -x {0.0 3.0 -1 ------- null}
+ -t 0.09856 -s 0 -d 4 -p tcp -e 1040 -c 2 -i 27 -a 2 -x {0.0 3.0 4 ------- null}
r -t 0.099 -s 1 -d 4 -p cbr -e 500 -c 1 -i 22 -a 1 -x {1.0 2.0 17 ------- null}
+ -t 0.099 -s 4 -d 2 -p cbr -e 500 -c 1 -i 22 -a 1 -x {1.0 2.0 17 ------- null}
- -t 0.099 -s 4 -d 2 -p cbr -e 500 -c 1 -i 22 -a 1 -x {1.0 2.0 17 ------- null}
h -t 0.099 -s 4 -d 2 -p cbr -e 500 -c 1 -i 22 -a 1 -x {1.0 2.0 -1 ------- null}
+ -t 0.1 -s 1 -d 4 -p cbr -e 500 -c 1 -i 28 -a 1 -x {1.0 2.0 20 ------- null}
- -t 0.1 -s 1 -d 4 -p cbr -e 500 -c 1 -i 28 -a 1 -x {1.0 2.0 20 ------- null}
h -t 0.1 -s 1 -d 4 -p cbr -e 500 -c 1 -i 28 -a 1 -x {1.0 2.0 -1 ------- null}
r -t 0.103 -s 4 -d 2 -p cbr -e 500 -c 1 -i 19 -a 1 -x {1.0 2.0 15 ------- null}
r -t 0.104 -s 1 -d 4 -p cbr -e 500 -c 1 -i 24 -a 1 -x {1.0 2.0 18 ------- null}
+ -t 0.104 -s 4 -d 2 -p cbr -e 500 -c 1 -i 24 -a 1 -x {1.0 2.0 18 ------- null}
- -t 0.104 -s 4 -d 2 -p cbr -e 500 -c 1 -i 24 -a 1 -x {1.0 2.0 18 ------- null}
h -t 0.104 -s 4 -d 2 -p cbr -e 500 -c 1 -i 24 -a 1 -x {1.0 2.0 -1 ------- null}
+ -t 0.105 -s 1 -d 4 -p cbr -e 500 -c 1 -i 29 -a 1 -x {1.0 2.0 21 ------- null}
- -t 0.105 -s 1 -d 4 -p cbr -e 500 -c 1 -i 29 -a 1 -x {1.0 2.0 21 ------- null}
h -t 0.105 -s 1 -d 4 -p cbr -e 500 -c 1 -i 29 -a 1 -x {1.0 2.0 -1 ------- null}
- -t 0.10688 -s 0 -d 4 -p tcp -e 1040 -c 2 -i 27 -a 2 -x {0.0 3.0 4 ------- null}
h -t 0.10688 -s 0 -d 4 -p tcp -e 1040 -c 2 -i 27 -a 2 -x {0.0 3.0 -1 ------- null}
r -t 0.10688 -s 4 -d 0 -p ack -e 40 -c 2 -i 23 -a 2 -x {3.0 0.0 2 ------- null}
+ -t 0.10688 -s 0 -d 4 -p tcp -e 1040 -c 2 -i 30 -a 2 -x {0.0 3.0 5 ------- null}
+ -t 0.10688 -s 0 -d 4 -p tcp -e 1040 -c 2 -i 31 -a 2 -x {0.0 3.0 6 ------- null}
r -t 0.108 -s 4 -d 2 -p cbr -e 500 -c 1 -i 21 -a 1 -x {1.0 2.0 16 ------- null}
r -t 0.109 -s 1 -d 4 -p cbr -e 500 -c 1 -i 25 -a 1 -x {1.0 2.0 19 ------- null}
+ -t 0.109 -s 4 -d 2 -p cbr -e 500 -c 1 -i 25 -a 1 -x {1.0 2.0 19 ------- null}
- -t 0.109 -s 4 -d 2 -p cbr -e 500 -c 1 -i 25 -a 1 -x {1.0 2.0 19 ------- null}
h -t 0.109 -s 4 -d 2 -p cbr -e 500 -c 1 -i 25 -a 1 -x {1.0 2.0 -1 ------- null}
+ -t 0.11 -s 1 -d 4 -p cbr -e 500 -c 1 -i 32 -a 1 -x {1.0 2.0 22 ------- null}
- -t 0.11 -s 1 -d 4 -p cbr -e 500 -c 1 -i 32 -a 1 -x {1.0 2.0 22 ------- null}
h -t 0.11 -s 1 -d 4 -p cbr -e 500 -c 1 -i 32 -a 1 -x {1.0 2.0 -1 ------- null}
r -t 0.113 -s 4 -d 2 -p cbr -e 500 -c 1 -i 22 -a 1 -x {1.0 2.0 17 ------- null}
r -t 0.114 -s 1 -d 4 -p cbr -e 500 -c 1 -i 28 -a 1 -x {1.0 2.0 20 ------- null}
+ -t 0.114 -s 4 -d 2 -p cbr -e 500 -c 1 -i 28 -a 1 -x {1.0 2.0 20 ------- null}
- -t 0.114 -s 4 -d 2 -p cbr -e 500 -c 1 -i 28 -a 1 -x {1.0 2.0 20 ------- null}
h -t 0.114 -s 4 -d 2 -p cbr -e 500 -c 1 -i 28 -a 1 -x {1.0 2.0 -1 ------- null}
+ -t 0.115 -s 1 -d 4 -p cbr -e 500 -c 1 -i 33 -a 1 -x {1.0 2.0 23 ------- null}
- -t 0.115 -s 1 -d 4 -p cbr -e 500 -c 1 -i 33 -a 1 -x {1.0 2.0 23 ------- null}
h -t 0.115 -s 1 -d 4 -p cbr -e 500 -c 1 -i 33 -a 1 -x {1.0 2.0 -1 ------- null}
- -t 0.1152 -s 0 -d 4 -p tcp -e 1040 -c 2 -i 30 -a 2 -x {0.0 3.0 5 ------- null}
h -t 0.1152 -s 0 -d 4 -p tcp -e 1040 -c 2 -i 30 -a 2 -x {0.0 3.0 -1 ------- null}
r -t 0.11688 -s 0 -d 4 -p tcp -e 1040 -c 2 -i 26 -a 2 -x {0.0 3.0 3 ------- null}
+ -t 0.11688 -s 4 -d 3 -p tcp -e 1040 -c 2 -i 26 -a 2 -x {0.0 3.0 3 ------- null}
- -t 0.11688 -s 4 -d 3 -p tcp -e 1040 -c 2 -i 26 -a 2 -x {0.0 3.0 3 ------- null}
h -t 0.11688 -s 4 -d 3 -p tcp -e 1040 -c 2 -i 26 -a 2 -x {0.0 3.0 -1 ------- null}
r -t 0.118 -s 4 -d 2 -p cbr -e 500 -c 1 -i 24 -a 1 -x {1.0 2.0 18 ------- null}
r -t 0.119 -s 1 -d 4 -p cbr -e 500 -c 1 -i 29 -a 1 -x {1.0 2.0 21 ------- null}
+ -t 0.119 -s 4 -d 2 -p cbr -e 500 -c 1 -i 29 -a 1 -x {1.0 2.0 21 ------- null}
- -t 0.119 -s 4 -d 2 -p cbr -e 500 -c 1 -i 29 -a 1 -x {1.0 2.0 21 ------- null}
h -t 0.119 -s 4 -d 2 -p cbr -e 500 -c 1 -i 29 -a 1 -x {1.0 2.0 -1 ------- null}
+ -t 0.12 -s 1 -d 4 -p cbr -e 500 -c 1 -i 34 -a 1 -x {1.0 2.0 24 ------- null}
- -t 0.12 -s 1 -d 4 -p cbr -e 500 -c 1 -i 34 -a 1 -x {1.0 2.0 24 ------- null}
h -t 0.12 -s 1 -d 4 -p cbr -e 500 -c 1 -i 34 -a 1 -x {1.0 2.0 -1 ------- null}
r -t 0.123 -s 4 -d 2 -p cbr -e 500 -c 1 -i 25 -a 1 -x {1.0 2.0 19 ------- null}
- -t 0.12352 -s 0 -d 4 -p tcp -e 1040 -c 2 -i 31 -a 2 -x {0.0 3.0 6 ------- null}
h -t 0.12352 -s 0 -d 4 -p tcp -e 1040 -c 2 -i 31 -a 2 -x {0.0 3.0 -1 ------- null}
r -t 0.124 -s 1 -d 4 -p cbr -e 500 -c 1 -i 32 -a 1 -x {1.0 2.0 22 ------- null}
+ -t 0.124 -s 4 -d 2 -p cbr -e 500 -c 1 -i 32 -a 1 -x {1.0 2.0 22 ------- null}
- -t 0.124 -s 4 -d 2 -p cbr -e 500 -c 1 -i 32 -a 1 -x {1.0 2.0 22 ------- null}
h -t 0.124 -s 4 -d 2 -p cbr -e 500 -c 1 -i 32 -a 1 -x {1.0 2.0 -1 ------- null}
+ -t 0.125 -s 1 -d 4 -p cbr -e 500 -c 1 -i 35 -a 1 -x {1.0 2.0 25 ------- null}
- -t 0.125 -s 1 -d 4 -p cbr -e 500 -c 1 -i 35 -a 1 -x {1.0 2.0 25 ------- null}
h -t 0.125 -s 1 -d 4 -p cbr -e 500 -c 1 -i 35 -a 1 -x {1.0 2.0 -1 ------- null}
r -t 0.1252 -s 0 -d 4 -p tcp -e 1040 -c 2 -i 27 -a 2 -x {0.0 3.0 4 ------- null}
+ -t 0.1252 -s 4 -d 3 -p tcp -e 1040 -c 2 -i 27 -a 2 -x {0.0 3.0 4 ------- null}
- -t 0.1252 -s 4 -d 3 -p tcp -e 1040 -c 2 -i 27 -a 2 -x {0.0 3.0 4 ------- null}
h -t 0.1252 -s 4 -d 3 -p tcp -e 1040 -c 2 -i 27 -a 2 -x {0.0 3.0 -1 ------- null}
r -t 0.128 -s 4 -d 2 -p cbr -e 500 -c 1 -i 28 -a 1 -x {1.0 2.0 20 ------- null}
r -t 0.129 -s 1 -d 4 -p cbr -e 500 -c 1 -i 33 -a 1 -x {1.0 2.0 23 ------- null}
+ -t 0.129 -s 4 -d 2 -p cbr -e 500 -c 1 -i 33 -a 1 -x {1.0 2.0 23 ------- null}
- -t 0.129 -s 4 -d 2 -p cbr -e 500 -c 1 -i 33 -a 1 -x {1.0 2.0 23 ------- null}
h -t 0.129 -s 4 -d 2 -p cbr -e 500 -c 1 -i 33 -a 1 -x {1.0 2.0 -1 ------- null}
+ -t 0.13 -s 1 -d 4 -p cbr -e 500 -c 1 -i 36 -a 1 -x {1.0 2.0 26 ------- null}
- -t 0.13 -s 1 -d 4 -p cbr -e 500 -c 1 -i 36 -a 1 -x {1.0 2.0 26 ------- null}
h -t 0.13 -s 1 -d 4 -p cbr -e 500 -c 1 -i 36 -a 1 -x {1.0 2.0 -1 ------- null}
r -t 0.133 -s 4 -d 2 -p cbr -e 500 -c 1 -i 29 -a 1 -x {1.0 2.0 21 ------- null}
r -t 0.13352 -s 0 -d 4 -p tcp -e 1040 -c 2 -i 30 -a 2 -x {0.0 3.0 5 ------- null}
+ -t 0.13352 -s 4 -d 3 -p tcp -e 1040 -c 2 -i 30 -a 2 -x {0.0 3.0 5 ------- null}
- -t 0.13352 -s 4 -d 3 -p tcp -e 1040 -c 2 -i 30 -a 2 -x {0.0 3.0 5 ------- null}
h -t 0.13352 -s 4 -d 3 -p tcp -e 1040 -c 2 -i 30 -a 2 -x {0.0 3.0 -1 ------- null}
r -t 0.134 -s 1 -d 4 -p cbr -e 500 -c 1 -i 34 -a 1 -x {1.0 2.0 24 ------- null}
+ -t 0.134 -s 4 -d 2 -p cbr -e 500 -c 1 -i 34 -a 1 -x {1.0 2.0 24 ------- null}
- -t 0.134 -s 4 -d 2 -p cbr -e 500 -c 1 -i 34 -a 1 -x {1.0 2.0 24 ------- null}
h -t 0.134 -s 4 -d 2 -p cbr -e 500 -c 1 -i 34 -a 1 -x {1.0 2.0 -1 ------- null}
+ -t 0.135 -s 1 -d 4 -p cbr -e 500 -c 1 -i 37 -a 1 -x {1.0 2.0 27 ------- null}
- -t 0.135 -s 1 -d 4 -p cbr -e 500 -c 1 -i 37 -a 1 -x {1.0 2.0 27 ------- null}
h -t 0.135 -s 1 -d 4 -p cbr -e 500 -c 1 -i 37 -a 1 -x {1.0 2.0 -1 ------- null}
r -t 0.1352 -s 4 -d 3 -p tcp -e 1040 -c 2 -i 26 -a 2 -x {0.0 3.0 3 ------- null}
+ -t 0.1352 -s 3 -d 4 -p ack -e 40 -c 2 -i 38 -a 2 -x {3.0 0.0 3 ------- null}
- -t 0.1352 -s 3 -d 4 -p ack -e 40 -c 2 -i 38 -a 2 -x {3.0 0.0 3 ------- null}
h -t 0.1352 -s 3 -d 4 -p ack -e 40 -c 2 -i 38 -a 2 -x {3.0 0.0 -1 ------- null}
r -t 0.138 -s 4 -d 2 -p cbr -e 500 -c 1 -i 32 -a 1 -x {1.0 2.0 22 ------- null}
r -t 0.139 -s 1 -d 4 -p cbr -e 500 -c 1 -i 35 -a 1 -x {1.0 2.0 25 ------- null}
+ -t 0.139 -s 4 -d 2 -p cbr -e 500 -c 1 -i 35 -a 1 -x {1.0 2.0 25 ------- null}
- -t 0.139 -s 4 -d 2 -p cbr -e 500 -c 1 -i 35 -a 1 -x {1.0 2.0 25 ------- null}
h -t 0.139 -s 4 -d 2 -p cbr -e 500 -c 1 -i 35 -a 1 -x {1.0 2.0 -1 ------- null}
+ -t 0.14 -s 1 -d 4 -p cbr -e 500 -c 1 -i 39 -a 1 -x {1.0 2.0 28 ------- null}
- -t 0.14 -s 1 -d 4 -p cbr -e 500 -c 1 -i 39 -a 1 -x {1.0 2.0 28 ------- null}
h -t 0.14 -s 1 -d 4 -p cbr -e 500 -c 1 -i 39 -a 1 -x {1.0 2.0 -1 ------- null}
r -t 0.14184 -s 0 -d 4 -p tcp -e 1040 -c 2 -i 31 -a 2 -x {0.0 3.0 6 ------- null}
+ -t 0.14184 -s 4 -d 3 -p tcp -e 1040 -c 2 -i 31 -a 2 -x {0.0 3.0 6 ------- null}
- -t 0.14184 -s 4 -d 3 -p tcp -e 1040 -c 2 -i 31 -a 2 -x {0.0 3.0 6 ------- null}
h -t 0.14184 -s 4 -d 3 -p tcp -e 1040 -c 2 -i 31 -a 2 -x {0.0 3.0 -1 ------- null}
r -t 0.143 -s 4 -d 2 -p cbr -e 500 -c 1 -i 33 -a 1 -x {1.0 2.0 23 ------- null}
r -t 0.14352 -s 4 -d 3 -p tcp -e 1040 -c 2 -i 27 -a 2 -x {0.0 3.0 4 ------- null}
+ -t 0.14352 -s 3 -d 4 -p ack -e 40 -c 2 -i 40 -a 2 -x {3.0 0.0 4 ------- null}
- -t 0.14352 -s 3 -d 4 -p ack -e 40 -c 2 -i 40 -a 2 -x {3.0 0.0 4 ------- null}
h -t 0.14352 -s 3 -d 4 -p ack -e 40 -c 2 -i 40 -a 2 -x {3.0 0.0 -1 ------- null}
r -t 0.144 -s 1 -d 4 -p cbr -e 500 -c 1 -i 36 -a 1 -x {1.0 2.0 26 ------- null}
+ -t 0.144 -s 4 -d 2 -p cbr -e 500 -c 1 -i 36 -a 1 -x {1.0 2.0 26 ------- null}
- -t 0.144 -s 4 -d 2 -p cbr -e 500 -c 1 -i 36 -a 1 -x {1.0 2.0 26 ------- null}
h -t 0.144 -s 4 -d 2 -p cbr -e 500 -c 1 -i 36 -a 1 -x {1.0 2.0 -1 ------- null}
+ -t 0.145 -s 1 -d 4 -p cbr -e 500 -c 1 -i 41 -a 1 -x {1.0 2.0 29 ------- null}
- -t 0.145 -s 1 -d 4 -p cbr -e 500 -c 1 -i 41 -a 1 -x {1.0 2.0 29 ------- null}
h -t 0.145 -s 1 -d 4 -p cbr -e 500 -c 1 -i 41 -a 1 -x {1.0 2.0 -1 ------- null}
r -t 0.14552 -s 3 -d 4 -p ack -e 40 -c 2 -i 38 -a 2 -x {3.0 0.0 3 ------- null}
+ -t 0.14552 -s 4 -d 0 -p ack -e 40 -c 2 -i 38 -a 2 -x {3.0 0.0 3 ------- null}
- -t 0.14552 -s 4 -d 0 -p ack -e 40 -c 2 -i 38 -a 2 -x {3.0 0.0 3 ------- null}
h -t 0.14552 -s 4 -d 0 -p ack -e 40 -c 2 -i 38 -a 2 -x {3.0 0.0 -1 ------- null}
r -t 0.148 -s 4 -d 2 -p cbr -e 500 -c 1 -i 34 -a 1 -x {1.0 2.0 24 ------- null}
r -t 0.149 -s 1 -d 4 -p cbr -e 500 -c 1 -i 37 -a 1 -x {1.0 2.0 27 ------- null}
+ -t 0.149 -s 4 -d 2 -p cbr -e 500 -c 1 -i 37 -a 1 -x {1.0 2.0 27 ------- null}
- -t 0.149 -s 4 -d 2 -p cbr -e 500 -c 1 -i 37 -a 1 -x {1.0 2.0 27 ------- null}
h -t 0.149 -s 4 -d 2 -p cbr -e 500 -c 1 -i 37 -a 1 -x {1.0 2.0 -1 ------- null}
+ -t 0.15 -s 1 -d 4 -p cbr -e 500 -c 1 -i 42 -a 1 -x {1.0 2.0 30 ------- null}
- -t 0.15 -s 1 -d 4 -p cbr -e 500 -c 1 -i 42 -a 1 -x {1.0 2.0 30 ------- null}
h -t 0.15 -s 1 -d 4 -p cbr -e 500 -c 1 -i 42 -a 1 -x {1.0 2.0 -1 ------- null}
r -t 0.15184 -s 4 -d 3 -p tcp -e 1040 -c 2 -i 30 -a 2 -x {0.0 3.0 5 ------- null}
+ -t 0.15184 -s 3 -d 4 -p ack -e 40 -c 2 -i 43 -a 2 -x {3.0 0.0 5 ------- null}
- -t 0.15184 -s 3 -d 4 -p ack -e 40 -c 2 -i 43 -a 2 -x {3.0 0.0 5 ------- null}
h -t 0.15184 -s 3 -d 4 -p ack -e 40 -c 2 -i 43 -a 2 -x {3.0 0.0 -1 ------- null}
r -t 0.153 -s 4 -d 2 -p cbr -e 500 -c 1 -i 35 -a 1 -x {1.0 2.0 25 ------- null}
r -t 0.15384 -s 3 -d 4 -p ack -e 40 -c 2 -i 40 -a 2 -x {3.0 0.0 4 ------- null}
+ -t 0.15384 -s 4 -d 0 -p ack -e 40 -c 2 -i 40 -a 2 -x {3.0 0.0 4 ------- null}
- -t 0.15384 -s 4 -d 0 -p ack -e 40 -c 2 -i 40 -a 2 -x {3.0 0.0 4 ------- null}
h -t 0.15384 -s 4 -d 0 -p ack -e 40 -c 2 -i 40 -a 2 -x {3.0 0.0 -1 ------- null}
r -t 0.154 -s 1 -d 4 -p cbr -e 500 -c 1 -i 39 -a 1 -x {1.0 2.0 28 ------- null}
+ -t 0.154 -s 4 -d 2 -p cbr -e 500 -c 1 -i 39 -a 1 -x {1.0 2.0 28 ------- null}
- -t 0.154 -s 4 -d 2 -p cbr -e 500 -c 1 -i 39 -a 1 -x {1.0 2.0 28 ------- null}
h -t 0.154 -s 4 -d 2 -p cbr -e 500 -c 1 -i 39 -a 1 -x {1.0 2.0 -1 ------- null}
+ -t 0.155 -s 1 -d 4 -p cbr -e 500 -c 1 -i 44 -a 1 -x {1.0 2.0 31 ------- null}
- -t 0.155 -s 1 -d 4 -p cbr -e 500 -c 1 -i 44 -a 1 -x {1.0 2.0 31 ------- null}
h -t 0.155 -s 1 -d 4 -p cbr -e 500 -c 1 -i 44 -a 1 -x {1.0 2.0 -1 ------- null}
r -t 0.15584 -s 4 -d 0 -p ack -e 40 -c 2 -i 38 -a 2 -x {3.0 0.0 3 ------- null}
+ -t 0.15584 -s 0 -d 4 -p tcp -e 1040 -c 2 -i 45 -a 2 -x {0.0 3.0 7 ------- null}
- -t 0.15584 -s 0 -d 4 -p tcp -e 1040 -c 2 -i 45 -a 2 -x {0.0 3.0 7 ------- null}
h -t 0.15584 -s 0 -d 4 -p tcp -e 1040 -c 2 -i 45 -a 2 -x {0.0 3.0 -1 ------- null}
+ -t 0.15584 -s 0 -d 4 -p tcp -e 1040 -c 2 -i 46 -a 2 -x {0.0 3.0 8 ------- null}
r -t 0.158 -s 4 -d 2 -p cbr -e 500 -c 1 -i 36 -a 1 -x {1.0 2.0 26 ------- null}
r -t 0.159 -s 1 -d 4 -p cbr -e 500 -c 1 -i 41 -a 1 -x {1.0 2.0 29 ------- null}
+ -t 0.159 -s 4 -d 2 -p cbr -e 500 -c 1 -i 41 -a 1 -x {1.0 2.0 29 ------- null}
- -t 0.159 -s 4 -d 2 -p cbr -e 500 -c 1 -i 41 -a 1 -x {1.0 2.0 29 ------- null}
h -t 0.159 -s 4 -d 2 -p cbr -e 500 -c 1 -i 41 -a 1 -x {1.0 2.0 -1 ------- null}
+ -t 0.16 -s 1 -d 4 -p cbr -e 500 -c 1 -i 47 -a 1 -x {1.0 2.0 32 ------- null}
- -t 0.16 -s 1 -d 4 -p cbr -e 500 -c 1 -i 47 -a 1 -x {1.0 2.0 32 ------- null}
h -t 0.16 -s 1 -d 4 -p cbr -e 500 -c 1 -i 47 -a 1 -x {1.0 2.0 -1 ------- null}
r -t 0.16016 -s 4 -d 3 -p tcp -e 1040 -c 2 -i 31 -a 2 -x {0.0 3.0 6 ------- null}
+ -t 0.16016 -s 3 -d 4 -p ack -e 40 -c 2 -i 48 -a 2 -x {3.0 0.0 6 ------- null}
- -t 0.16016 -s 3 -d 4 -p ack -e 40 -c 2 -i 48 -a 2 -x {3.0 0.0 6 ------- null}
h -t 0.16016 -s 3 -d 4 -p ack -e 40 -c 2 -i 48 -a 2 -x {3.0 0.0 -1 ------- null}
r -t 0.16216 -s 3 -d 4 -p ack -e 40 -c 2 -i 43 -a 2 -x {3.0 0.0 5 ------- null}
+ -t 0.16216 -s 4 -d 0 -p ack -e 40 -c 2 -i 43 -a 2 -x {3.0 0.0 5 ------- null}
- -t 0.16216 -s 4 -d 0 -p ack -e 40 -c 2 -i 43 -a 2 -x {3.0 0.0 5 ------- null}
h -t 0.16216 -s 4 -d 0 -p ack -e 40 -c 2 -i 43 -a 2 -x {3.0 0.0 -1 ------- null}
r -t 0.163 -s 4 -d 2 -p cbr -e 500 -c 1 -i 37 -a 1 -x {1.0 2.0 27 ------- null}
r -t 0.164 -s 1 -d 4 -p cbr -e 500 -c 1 -i 42 -a 1 -x {1.0 2.0 30 ------- null}
+ -t 0.164 -s 4 -d 2 -p cbr -e 500 -c 1 -i 42 -a 1 -x {1.0 2.0 30 ------- null}
- -t 0.164 -s 4 -d 2 -p cbr -e 500 -c 1 -i 42 -a 1 -x {1.0 2.0 30 ------- null}
h -t 0.164 -s 4 -d 2 -p cbr -e 500 -c 1 -i 42 -a 1 -x {1.0 2.0 -1 ------- null}
- -t 0.16416 -s 0 -d 4 -p tcp -e 1040 -c 2 -i 46 -a 2 -x {0.0 3.0 8 ------- null}
h -t 0.16416 -s 0 -d 4 -p tcp -e 1040 -c 2 -i 46 -a 2 -x {0.0 3.0 -1 ------- null}
r -t 0.16416 -s 4 -d 0 -p ack -e 40 -c 2 -i 40 -a 2 -x {3.0 0.0 4 ------- null}
+ -t 0.16416 -s 0 -d 4 -p tcp -e 1040 -c 2 -i 49 -a 2 -x {0.0 3.0 9 ------- null}
+ -t 0.16416 -s 0 -d 4 -p tcp -e 1040 -c 2 -i 50 -a 2 -x {0.0 3.0 10 ------- null}
+ -t 0.165 -s 1 -d 4 -p cbr -e 500 -c 1 -i 51 -a 1 -x {1.0 2.0 33 ------- null}
- -t 0.165 -s 1 -d 4 -p cbr -e 500 -c 1 -i 51 -a 1 -x {1.0 2.0 33 ------- null}
h -t 0.165 -s 1 -d 4 -p cbr -e 500 -c 1 -i 51 -a 1 -x {1.0 2.0 -1 ------- null}