+ 0 0 4 tcp 40 ------- 2 0.0 3.0 0 0
- 0 0 4 tcp 40 ------- 2 0.0 3.0 0 0
+ 0 1 4 cbr 500 ------- 1 1.0 2.0 0 1
- 0 1 4 cbr 500 ------- 1 1.0 2.0 0 1
+ 0.005 1 4 cbr 500 ------- 1 1.0 2.0 1 2
- 0.005 1 4 cbr 500 ------- 1 1.0 2.0 1 2
+ 0.01 1 4 cbr 500 ------- 1 1.0 2.0 2 3
- 0.01 1 4 cbr 500 ------- 1 1.0 2.0 2 3
r 0.01032 0 4 tcp 40 ------- 2 0.0 3.0 0 0
+ 0.01032 4 3 tcp 40 ------- 2 0.0 3.0 0 0
- 0.01032 4 3 tcp 40 ------- 2 0.0 3.0 0 0
r 0.014 1 4 cbr 500 ------- 1 1.0 2.0 0 1
+ 0.014 4 2 cbr 500 ------- 1 1.0 2.0 0 1
- 0.014 4 2 cbr 500 ------- 1 1.0 2.0 0 1
+ 0.015 1 4 cbr 500 ------- 1 1.0 2.0 3 4
- 0.015 1 4 cbr 500 ------- 1 1.0 2.0 3 4
r 0.019 1 4 cbr 500 ------- 1 1.0 2.0 1 2
+ 0.019 4 2 cbr 500 ------- 1 1.0 2.0 1 2
- 0.019 4 2 cbr 500 ------- 1 1.0 2.0 1 2
+ 0.02 1 4 cbr 500 ------- 1 1.0 2.0 4 5
- 0.02 1 4 cbr 500 ------- 1 1.0 2.0 4 5
r 0.02064 4 3 tcp 40 ------- 2 0.0 3.0 0 0
+ 0.02064 3 4 ack 40 ------- 2 3.0 0.0 0 6
- 0.02064 3 4 ack 40 ------- 2 3.0 0.0 0 6
r 0.024 1 4 cbr 500 ------- 1 1.0 2.0 2 3
+ 0.024 4 2 cbr 500 ------- 1 1.0 2.0 2 3
- 0.024 4 2 cbr 500 ------- 1 1.0 2.0 2 3
+ 0.025 1 4 cbr 500 ------- 1 1.0 2.0 5 7
- 0.025 1 4 cbr 500 ------- 1 1.0 2.0 5 7
r 0.028 4 2 cbr 500 ------- 1 1.0 2.0 0 1
r 0.029 1 4 cbr 500 ------- 1 1.0 2.0 3 4
+ 0.029 4 2 cbr 500 ------- 1 1.0 2.0 3 4
- 0.029 4 2 cbr 500 ------- 1 1.0 2.0 3 4
+ 0.03 1 4 cbr 500 ------- 1 1.0 2.0 6 8
- 0.03 1 4 cbr 500 ------- 1 1.0 2.0 6 8
r 0.03096 3 4 ack 40 ------- 2 3.0 0.0 0 6
+ 0.03096 4 0 ack 40 ------- 2 3.0 0.0 0 6
- 0.03096 4 0 ack 40 ------- 2 3.0 0.0 0 6
r 0.033 4 2 cbr 500 ------- 1 1.0 2.0 1 2
r 0.034 1 4 cbr 500 ------- 1 1.0 2.0 4 5
+ 0.034 4 2 cbr 500 ------- 1 1.0 2.0 4 5
- 0.034 4 2 cbr 500 ------- 1 1.0 2.0 4 5
+ 0.035 1 4 cbr 500 ------- 1 1.0 2.0 7 9
- 0.035 1 4 cbr 500 ------- 1 1.0 2.0 7 9
r 0.038 4 2 cbr 500 ------- 1 1.0 2.0 2 3
r 0.039 1 4 cbr 500 ------- 1 1.0 2.0 5 7
+ 0.039 4 2 cbr 500 ------- 1 1.0 2.0 5 7
- 0.039 4 2 cbr 500 ------- 1 1.0 2.0 5 7
+ 0.04 1 4 cbr 500 ------- 1 1.0 2.0 8 10
- 0.04 1 4 cbr 500 ------- 1 1.0 2.0 8 10
r 0.04128 4 0 ack 40 ------- 2 3.0 0.0 0 6
+ 0.04128 0 4 tcp 1040 ------- 2 0.0 3.0 1 11
- 0.04128 0 4 tcp 1040 ------- 2 0.0 3.0 1 11
+ 0.04128 0 4 tcp 1040 ------- 2 0.0 3.0 2 12
r 0.043 4 2 cbr 500 ------- 1 1.0 2.0 3 4
r 0.044 1 4 cbr 500 ------- 1 1.0 2.0 6 8
+ 0.044 4 2 cbr 500 ------- 1 1.0 2.0 6 8
- 0.044 4 2 cbr 500 ------- 1 1.0 2.0 6 8
+ 0.045 1 4 cbr 500 ------- 1 1.0 2.0 9 13
- 0.045 1 4 cbr 500 ------- 1 1.0 2.0 9 13
r 0.048 4 2 cbr 500 ------- 1 1.0 2.0 4 5
r 0.049 1 4 cbr 500 ------- 1 1.0 2.0 7 9
+ 0.049 4 2 cbr 500 ------- 1 1.0 2.0 7 9
- 0.049 4 2 cbr 500 ------- 1 1.0 2.0 7 9
- 0.0496 0 4 tcp 1040 ------- 2 0.0 3.0 2 12
+ 0.05 1 4 cbr 500 ------- 1 1.0 2.0 10 14
- 0.05 1 4 cbr 500 ------- 1 1.0 2.0 10 14
r 0.053 4 2 cbr 500 ------- 1 1.0 2.0 5 7
r 0.054 1 4 cbr 500 ------- 1 1.0 2.0 8 10
+ 0.054 4 2 cbr 500 ------- 1 1.0 2.0 8 10
- 0.054 4 2 cbr 500 ------- 1 1.0 2.0 8 10
+ 0.055 1 4 cbr 500 ------- 1 1.0 2.0 11 15
- 0.055 1 4 cbr 500 ------- 1 1.0 2.0 11 15
r 0.058 4 2 cbr 500 ------- 1 1.0 2.0 6 8
r 0.059 1 4 cbr 500 ------- 1 1.0 2.0 9 13
+ 0.059 4 2 cbr 500 ------- 1 1.0 2.0 9 13
- 0.059 4 2 cbr 500 ------- 1 1.0 2.0 9 13
r 0.0596 0 4 tcp 1040 ------- 2 0.0 3.0 1 11
+ 0.0596 4 3 tcp 1040 ------- 2 0.0 3.0 1 11
- 0.0596 4 3 tcp 1040 ------- 2 0.0 3.0 1 11
+ 0.06 1 4 cbr 500 ------- 1 1.0 2.0 12 16
- 0.06 1 4 cbr 500 ------- 1 1.0 2.0 12 16
r 0.063 4 2 cbr 500 ------- 1 1.0 2.0 7 9
r 0.064 1 4 cbr 500 ------- 1 1.0 2.0 10 14
+ 0.064 4 2 cbr 500 ------- 1 1.0 2.0 10 14
- 0.064 4 2 cbr 500 ------- 1 1.0 2.0 10 14
+ 0.065 1 4 cbr 500 ------- 1 1.0 2.0 13 17
- 0.065 1 4 cbr 500 ------- 1 1.0 2.0 13 17
r 0.06792 0 4 tcp 1040 ------- 2 0.0 3.0 2 12
+ 0.06792 4 3 tcp 1040 ------- 2 0.0 3.0 2 12
- 0.06792 4 3 tcp 1040 ------- 2 0.0 3.0 2 12
r 0.068 4 2 cbr 500 ------- 1 1.0 2.0 8 10
r 0.069 1 4 cbr 500 ------- 1 1.0 2.0 11 15
+ 0.069 4 2 cbr 500 ------- 1 1.0 2.0 11 15
- 0.069 4 2 cbr 500 ------- 1 1.0 2.0 11 15
+ 0.07 1 4 cbr 500 ------- 1 1.0 2.0 14 18
- 0.07 1 4 cbr 500 ------- 1 1.0 2.0 14 18
r 0.073 4 2 cbr 500 ------- 1 1.0 2.0 9 13
r 0.074 1 4 cbr 500 ------- 1 1.0 2.0 12 16
+ 0.074 4 2 cbr 500 ------- 1 1.0 2.0 12 16
- 0.074 4 2 cbr 500 ------- 1 1.0 2.0 12 16
+ 0.075 1 4 cbr 500 ------- 1 1.0 2.0 15 19
- 0.075 1 4 cbr 500 ------- 1 1.0 2.0 15 19
r 0.07792 4 3 tcp 1040 ------- 2 0.0 3.0 1 11
+ 0.07792 3 4 ack 40 ------- 2 3.0 0.0 1 20
- 0.07792 3 4 ack 40 ------- 2 3.0 0.0 1 20
r 0.078 4 2 cbr 500 ------- 1 1.0 2.0 10 14
r 0.079 1 4 cbr 500 ------- 1 1.0 2.0 13 17
+ 0.079 4 2 cbr 500 ------- 1 1.0 2.0 13 17
- 0.079 4 2 cbr 500 ------- 1 1.0 2.0 13 17
+ 0.08 1 4 cbr 500 ------- 1 1.0 2.0 16 21
- 0.08 1 4 cbr 500 ------- 1 1.0 2.0 16 21
r 0.083 4 2 cbr 500 ------- 1 1.0 2.0 11 15
r 0.084 1 4 cbr 500 ------- 1 1.0 2.0 14 18
+ 0.084 4 2 cbr 500 ------- 1 1.0 2.0 14 18
- 0.084 4 2 cbr 500 ------- 1 1.0 2.0 14 18
+ 0.085 1 4 cbr 500 ------- 1 1.0 2.0 17 22
- 0.085 1 4 cbr 500 ------- 1 1.0 2.0 17 22
r 0.08624 4 3 tcp 1040 ------- 2 0.0 3.0 2 12
+ 0.08624 3 4 ack 40 ------- 2 3.0 0.0 2 23
- 0.08624 3 4 ack 40 ------- 2 3.0 0.0 2 23
r 0.088 4 2 cbr 500 ------- 1 1.0 2.0 12 16
r 0.08824 3 4 ack 40 ------- 2 3.0 0.0 1 20
+ 0.08824 4 0 ack 40 ------- 2 3.0 0.0 1 20
- 0.08824 4 0 ack 40 ------- 2 3.0 0.0 1 20
r 0.089 1 4 cbr 500 ------- 1 1.0 2.0 15 19
+ 0.089 4 2 cbr 500 ------- 1 1.0 2.0 15 19
- 0.089 4 2 cbr 500 ------- 1 1.0 2.0 15 19
+ 0.09 1 4 cbr 500 ------- 1 1.0 2.0 18 24
- 0.09 1 4 cbr 500 ------- 1 1.0 2.0 18 24
r 0.093 4 2 cbr 500 ------- 1 1.0 2.0 13 17
r 0.094 1 4 cbr 500 ------- 1 1.0 2.0 16 21
+ 0.094 4 2 cbr 500 ------- 1 1.0 2.0 16 21
- 0.094 4 2 cbr 500 ------- 1 1.0 2.0 16 21
+ 0.095 1 4 cbr 500 ------- 1 1.0 2.0 19 25
- 0.095 1 4 cbr 500 ------- 1 1.0 2.0 19 25
r 0.09656 3 4 ack 40 ------- 2 3.0 0.0 2 23
+ 0.09656 4 0 ack 40 ------- 2 3.0 0.0 2 23
- 0.09656 4 0 ack 40 ------- 2 3.0 0.0 2 23
r 0.098 4 2 cbr 500 ------- 1 1.0 2.0 14 18
r 0.09856 4 0 ack 40 ------- 2 3.0 0.0 1 20
+ 0.09856 0 4 tcp 1040 ------- 2 0.0 3.0 3 26
- 0.09856 0 4 tcp 1040 ------- 2 0.0 3.0 3 26
+ 0.09856 0 4 tcp 1040 ------- 2 0.0 3.0 4 27
r 0.099 1 4 cbr 500 ------- 1 1.0 2.0 17 22
+ 0.099 4 2 cbr 500 ------- 1 1.0 2.0 17 22
- 0.099 4 2 cbr 500 ------- 1 1.0 2.0 17 22
+ 0.1 1 4 cbr 500 ------- 1 1.0 2.0 20 28
- 0.1 1 4 cbr 500 ------- 1 1.0 2.0 20 28
r 0.103 4 2 cbr 500 ------- 1 1.0 2.0 15 19
r 0.104 1 4 cbr 500 ------- 1 1.0 2.0 18 24
+ 0.104 4 2 cbr 500 ------- 1 1.0 2.0 18 24
- 0.104 4 2 cbr 500 ------- 1 1.0 2.0 18 24
+ 0.105 1 4 cbr 500 ------- 1 1.0 2.0 21 29
- 0.105 1 4 cbr 500 ------- 1 1.0 2.0 21 29
- 0.10688 0 4 tcp 1040 ------- 2 0.0 3.0 4 27
r 0.10688 4 0 ack 40 ------- 2 3.0 0.0 2 23
+ 0.10688 0 4 tcp 1040 ------- 2 0.0 3.0 5 30
+ 0.10688 0 4 tcp 1040 ------- 2 0.0 3.0 6 31
r 0.108 4 2 cbr 500 ------- 1 1.0 2.0 16 21
r 0.109 1 4 cbr 500 ------- 1 1.0 2.0 19 25
+ 0.109 4 2 cbr 500 ------- 1 1.0 2.0 19 25
- 0.109 4 2 cbr 500 ------- 1 1.0 2.0 19 25
+ 0.11 1 4 cbr 500 ------- 1 1.0 2.0 22 32
- 0.11 1 4 cbr 500 ------- 1 1.0 2.0 22 32
r 0.113 4 2 cbr 500 ------- 1 1.0 2.0 17 22
r 0.114 1 4 cbr 500 ------- 1 1.0 2.0 20 28
+ 0.114 4 2 cbr 500 ------- 1 1.0 2.0 20 28
- 0.114 4 2 cbr 500 ------- 1 1.0 2.0 20 28
+ 0.115 1 4 cbr 500 ------- 1 1.0 2.0 23 33
- 0.115 1 4 cbr 500 ------- 1 1.0 2.0 23 33
- 0.1152 0 4 tcp 1040 ------- 2 0.0 3.0 5 30
r 0.11688 0 4 tcp 1040 ------- 2 0.0 3.0 3 26
+ 0.11688 4 3 tcp 1040 ------- 2 0.0 3.0 3 26
- 0.11688 4 3 tcp 1040 ------- 2 0.0 3.0 3 26
r 0.118 4 2 cbr 500 ------- 1 1.0 2.0 18 24
r 0.119 1 4 cbr 500 ------- 1 1.0 2.0 21 29
+ 0.119 4 2 cbr 500 ------- 1 1.0 2.0 21 29
- 0.119 4 2 cbr 500 ------- 1 1.0 2.0 21 29
+ 0.12 1 4 cbr 500 ------- 1 1.0 2.0 24 34
- 0.12 1 4 cbr 500 ------- 1 1.0 2.0 24 34
r 0.123 4 2 cbr 500 ------- 1 1.0 2.0 19 25
- 0.12352 0 4 tcp 1040 ------- 2 0.0 3.0 6 31
r 0.124 1 4 cbr 500 ------- 1 1.0 2.0 22 32
+ 0.124 4 2 cbr 500 ------- 1 1.0 2.0 22 32
- 0.124 4 2 cbr 500 ------- 1 1.0 2.0 22 32
+ 0.125 1 4 cbr 500 ------- 1 1.0 2.0 25 35
- 0.125 1 4 cbr 500 ------- 1 1.0 2.0 25 35
r 0.1252 0 4 tcp 1040 ------- 2 0.0 3.0 4 27
+ 0.1252 4 3 tcp 1040 ------- 2 0.0 3.0 4 27
- 0.1252 4 3 tcp 1040 ------- 2 0.0 3.0 4 27
r 0.128 4 2 cbr 500 ------- 1 1.0 2.0 20 28
r 0.129 1 4 cbr 500 ------- 1 1.0 2.0 23 33
+ 0.129 4 2 cbr 500 ------- 1 1.0 2.0 23 33
- 0.129 4 2 cbr 500 ------- 1 1.0 2.0 23 33
+ 0.13 1 4 cbr 500 ------- 1 1.0 2.0 26 36
- 0.13 1 4 cbr 500 ------- 1 1.0 2.0 26 36
r 0.133 4 2 cbr 500 ------- 1 1.0 2.0 21 29
r 0.13352 0 4 tcp 1040 ------- 2 0.0 3.0 5 30
+ 0.13352 4 3 tcp 1040 ------- 2 0.0 3.0 5 30
- 0.13352 4 3 tcp 1040 ------- 2 0.0 3.0 5 30
r 0.134 1 4 cbr 500 ------- 1 1.0 2.0 24 34
+ 0.134 4 2 cbr 500 ------- 1 1.0 2.0 24 34
- 0.134 4 2 cbr 500 ------- 1 1.0 2.0 24 34
+ 0.135 1 4 cbr 500 ------- 1 1.0 2.0 27 37
- 0.135 1 4 cbr 500 ------- 1 1.0 2.0 27 37
r 0.1352 4 3 tcp 1040 ------- 2 0.0 3.0 3 26
+ 0.1352 3 4 ack 40 ------- 2 3.0 0.0 3 38
- 0.1352 3 4 ack 40 ------- 2 3.0 0.0 3 38
r 0.138 4 2 cbr 500 ------- 1 1.0 2.0 22 32
r 0.139 1 4 cbr 500 ------- 1 1.0 2.0 25 35
+ 0.139 4 2 cbr 500 ------- 1 1.0 2.0 25 35
- 0.139 4 2 cbr 500 ------- 1 1.0 2.0 25 35
+ 0.14 1 4 cbr 500 ------- 1 1.0 2.0 28 39
- 0.14 1 4 cbr 500 ------- 1 1.0 2.0 28 39
r 0.14184 0 4 tcp 1040 ------- 2 0.0 3.0 6 31
+ 0.14184 4 3 tcp 1040 ------- 2 0.0 3.0 6 31
- 0.14184 4 3 tcp 1040 ------- 2 0.0 3.0 6 31
r 0.143 4 2 cbr 500 ------- 1 1.0 2.0 23 33
r 0.14352 4 3 tcp 1040 ------- 2 0.0 3.0 4 27
+ 0.14352 3 4 ack 40 ------- 2 3.0 0.0 4 40
- 0.14352 3 4 ack 40 ------- 2 3.0 0.0 4 40
r 0.144 1 4 cbr 500 ------- 1 1.0 2.0 26 36
+ 0.144 4 2 cbr 500 ------- 1 1.0 2.0 26 36
- 0.144 4 2 cbr 500 ------- 1 1.0 2.0 26 36
+ 0.145 1 4 cbr 500 ------- 1 1.0 2.0 29 41
- 0.145 1 4 cbr 500 ------- 1 1.0 2.0 29 41
r 0.14552 3 4 ack 40 ------- 2 3.0 0.0 3 38
+ 0.14552 4 0 ack 40 ------- 2 3.0 0.0 3 38
- 0.14552 4 0 ack 40 ------- 2 3.0 0.0 3 38
r 0.148 4 2 cbr 500 ------- 1 1.0 2.0 24 34
r 0.149 1 4 cbr 500 ------- 1 1.0 2.0 27 37
+ 0.149 4 2 cbr 500 ------- 1 1.0 2.0 27 37
- 0.149 4 2 cbr 500 ------- 1 1.0 2.0 27 37
+ 0.15 1 4 cbr 500 ------- 1 1.0 2.0 30 42
- 0.15 1 4 cbr 500 ------- 1 1.0 2.0 30 42
r 0.15184 4 3 tcp 1040 ------- 2 0.0 3.0 5 30
+ 0.15184 3 4 ack 40 ------- 2 3.0 0.0 5 43
- 0.15184 3 4 ack 40 ------- 2 3.0 0.0 5 43
r 0.153 4 2 cbr 500 ------- 1 1.0 2.0 25 35
r 0.15384 3 4 ack 40 ------- 2 3.0 0.0 4 40
+ 0.15384 4 0 ack 40 ------- 2 3.0 0.0 4 40
- 0.15384 4 0 ack 40 ------- 2 3.0 0.0 4 40
r 0.154 1 4 cbr 500 ------- 1 1.0 2.0 28 39
+ 0.154 4 2 cbr 500 ------- 1 1.0 2.0 28 39
- 0.154 4 2 cbr 500 ------- 1 1.0 2.0 28 39
+ 0.155 1 4 cbr 500 ------- 1 1.0 2.0 31 44
- 0.155 1 4 cbr 500 ------- 1 1.0 2.0 31 44
r 0.15584 4 0 ack 40 ------- 2 3.0 0.0 3 38
+ 0.15584 0 4 tcp 1040 ------- 2 0.0 3.0 7 45
- 0.15584 0 4 tcp 1040 ------- 2 0.0 3.0 7 45
+ 0.15584 0 4 tcp 1040 ------- 2 0.0 3.0 8 46
r 0.158 4 2 cbr 500 ------- 1 1.0 2.0 26 36
r 0.159 1 4 cbr 500 ------- 1 1.0 2.0 29 41
+ 0.159 4 2 cbr 500 ------- 1 1.0 2.0 29 41
- 0.159 4 2 cbr 500 ------- 1 1.0 2.0 29 41
+ 0.16 1 4 cbr 500 ------- 1 1.0 2.0 32 47
- 0.16 1 4 cbr 500 ------- 1 1.0 2.0 32 47
r 0.16016 4 3 tcp 1040 ------- 2 0.0 3.0 6 31
+ 0.16016 3 4 ack 40 ------- 2 3.0 0.0 6 48
- 0.16016 3 4 ack 40 ------- 2 3.0 0.0 6 48
r 0.16216 3 4 ack 40 ------- 2 3.0 0.0 5 43
+ 0.16216 4 0 ack 40 ------- 2 3.0 0.0 5 43
- 0.16216 4 0 ack 40 ------- 2 3.0 0.0 5 43
r 0.163 4 2 cbr 500 ------- 1 1.0 2.0 27 37
r 0.164 1 4 cbr 500 ------- 1 1.0 2.0 30 42
+ 0.164 4 2 cbr 500 ------- 1 1.0 2.0 30 42
- 0.164 4 2 cbr 500 ------- 1 1.0 2.0 30 42
- 0.16416 0 4 tcp 1040 ------- 2 0.0 3.0 8 46
r 0.16416 4 0 ack 40 ------- 2 3.0 0.0 4 40
+ 0.16416 0 4 tcp 1040 ------- 2 0.0 3.0 9 49
+ 0.16416 0 4 tcp 1040 ------- 2 0.0 3.0 10 50
+ 0.165 1 4 cbr 500 ------- 1 1.0 2.0 33 51
- 0.165 1 4 cbr 500 ------- 1 1.0 2.0 33 51
r 0.168 4 2 cbr 500 ------- 1 1.0 2.0 28 39
r 0.169 1 4 cbr 500 ------- 1 1.0 2.0 31 44
+ 0.169 4 2 cbr 500 ------- 1 1.0 2.0 31 44
- 0.169 4 2 cbr 500 ------- 1 1.0 2.0 31 44
+ 0.17 1 4 cbr 500 ------- 1 1.0 2.0 34 52
- 0.17 1 4 cbr 500 ------- 1 1.0 2.0 34 52
r 0.17048 3 4 ack 40 ------- 2 3.0 0.0 6 48
+ 0.17048 4 0 ack 40 ------- 2 3.0 0.0 6 48
- 0.17048 4 0 ack 40 ------- 2 3.0 0.0 6 48
- 0.17248 0 4 tcp 1040 ------- 2 0.0 3.0 9 49
r 0.17248 4 0 ack 40 ------- 2 3.0 0.0 5 43
+ 0.17248 0 4 tcp 1040 ------- 2 0.0 3.0 11 53
+ 0.17248 0 4 tcp 1040 ------- 2 0.0 3.0 12 54
r 0.173 4 2 cbr 500 ------- 1 1.0 2.0 29 41
r 0.174 1 4 cbr 500 ------- 1 1.0 2.0 32 47
+ 0.174 4 2 cbr 500 ------- 1 1.0 2.0 32 47
- 0.174 4 2 cbr 500 ------- 1 1.0 2.0 32 47
r 0.17416 0 4 tcp 1040 ------- 2 0.0 3.0 7 45
+ 0.17416 4 3 tcp 1040 ------- 2 0.0 3.0 7 45
- 0.17416 4 3 tcp 1040 ------- 2 0.0 3.0 7 45
+ 0.175 1 4 cbr 500 ------- 1 1.0 2.0 35 55
- 0.175 1 4 cbr 500 ------- 1 1.0 2.0 35 55
r 0.178 4 2 cbr 500 ------- 1 1.0 2.0 30 42
r 0.179 1 4 cbr 500 ------- 1 1.0 2.0 33 51
+ 0.179 4 2 cbr 500 ------- 1 1.0 2.0 33 51
- 0.179 4 2 cbr 500 ------- 1 1.0 2.0 33 51
+ 0.18 1 4 cbr 500 ------- 1 1.0 2.0 36 56
- 0.18 1 4 cbr 500 ------- 1 1.0 2.0 36 56
- 0.1808 0 4 tcp 1040 ------- 2 0.0 3.0 10 50
r 0.1808 4 0 ack 40 ------- 2 3.0 0.0 6 48
+ 0.1808 0 4 tcp 1040 ------- 2 0.0 3.0 13 57
+ 0.1808 0 4 tcp 1040 ------- 2 0.0 3.0 14 58
r 0.18248 0 4 tcp 1040 ------- 2 0.0 3.0 8 46
+ 0.18248 4 3 tcp 1040 ------- 2 0.0 3.0 8 46
- 0.18248 4 3 tcp 1040 ------- 2 0.0 3.0 8 46
r 0.183 4 2 cbr 500 ------- 1 1.0 2.0 31 44
r 0.184 1 4 cbr 500 ------- 1 1.0 2.0 34 52
+ 0.184 4 2 cbr 500 ------- 1 1.0 2.0 34 52
- 0.184 4 2 cbr 500 ------- 1 1.0 2.0 34 52
+ 0.185 1 4 cbr 500 ------- 1 1.0 2.0 37 59
- 0.185 1 4 cbr 500 ------- 1 1.0 2.0 37 59
r 0.188 4 2 cbr 500 ------- 1 1.0 2.0 32 47
r 0.189 1 4 cbr 500 ------- 1 1.0 2.0 35 55
+ 0.189 4 2 cbr 500 ------- 1 1.0 2.0 35 55
- 0.189 4 2 cbr 500 ------- 1 1.0 2.0 35 55
- 0.18912 0 4 tcp 1040 ------- 2 0.0 3.0 11 53
+ 0.19 1 4 cbr 500 ------- 1 1.0 2.0 38 60
- 0.19 1 4 cbr 500 ------- 1 1.0 2.0 38 60
r 0.1908 0 4 tcp 1040 ------- 2 0.0 3.0 9 49
+ 0.1908 4 3 tcp 1040 ------- 2 0.0 3.0 9 49
- 0.1908 4 3 tcp 1040 ------- 2 0.0 3.0 9 49
r 0.19248 4 3 tcp 1040 ------- 2 0.0 3.0 7 45
+ 0.19248 3 4 ack 40 ------- 2 3.0 0.0 7 61
- 0.19248 3 4 ack 40 ------- 2 3.0 0.0 7 61
r 0.193 4 2 cbr 500 ------- 1 1.0 2.0 33 51
r 0.194 1 4 cbr 500 ------- 1 1.0 2.0 36 56
+ 0.194 4 2 cbr 500 ------- 1 1.0 2.0 36 56
- 0.194 4 2 cbr 500 ------- 1 1.0 2.0 36 56
+ 0.195 1 4 cbr 500 ------- 1 1.0 2.0 39 62
- 0.195 1 4 cbr 500 ------- 1 1.0 2.0 39 62
- 0.19744 0 4 tcp 1040 ------- 2 0.0 3.0 12 54
r 0.198 4 2 cbr 500 ------- 1 1.0 2.0 34 52
r 0.199 1 4 cbr 500 ------- 1 1.0 2.0 37 59
+ 0.199 4 2 cbr 500 ------- 1 1.0 2.0 37 59
- 0.199 4 2 cbr 500 ------- 1 1.0 2.0 37 59
r 0.19912 0 4 tcp 1040 ------- 2 0.0 3.0 10 50
+ 0.19912 4 3 tcp 1040 ------- 2 0.0 3.0 10 50
- 0.19912 4 3 tcp 1040 ------- 2 0.0 3.0 10 50
+ 0.2 1 4 cbr 500 ------- 1 1.0 2.0 40 63
- 0.2 1 4 cbr 500 ------- 1 1.0 2.0 40 63
r 0.2008 4 3 tcp 1040 ------- 2 0.0 3.0 8 46
+ 0.2008 3 4 ack 40 ------- 2 3.0 0.0 8 64
- 0.2008 3 4 ack 40 ------- 2 3.0 0.0 8 64
r 0.2028 3 4 ack 40 ------- 2 3.0 0.0 7 61
+ 0.2028 4 0 ack 40 ------- 2 3.0 0.0 7 61
- 0.2028 4 0 ack 40 ------- 2 3.0 0.0 7 61
r 0.203 4 2 cbr 500 ------- 1 1.0 2.0 35 55
r 0.204 1 4 cbr 500 ------- 1 1.0 2.0 38 60
+ 0.204 4 2 cbr 500 ------- 1 1.0 2.0 38 60
- 0.204 4 2 cbr 500 ------- 1 1.0 2.0 38 60
+ 0.205 1 4 cbr 500 ------- 1 1.0 2.0 41 65
- 0.205 1 4 cbr 500 ------- 1 1.0 2.0 41 65
- 0.20576 0 4 tcp 1040 ------- 2 0.0 3.0 13 57
r 0.20744 0 4 tcp 1040 ------- 2 0.0 3.0 11 53
+ 0.20744 4 3 tcp 1040 ------- 2 0.0 3.0 11 53
- 0.20744 4 3 tcp 1040 ------- 2 0.0 3.0 11 53
r 0.208 4 2 cbr 500 ------- 1 1.0 2.0 36 56
r 0.209 1 4 cbr 500 ------- 1 1.0 2.0 39 62
+ 0.209 4 2 cbr 500 ------- 1 1.0 2.0 39 62
- 0.209 4 2 cbr 500 ------- 1 1.0 2.0 39 62
r 0.20912 4 3 tcp 1040 ------- 2 0.0 3.0 9 49
+ 0.20912 3 4 ack 40 ------- 2 3.0 0.0 9 66
- 0.20912 3 4 ack 40 ------- 2 3.0 0.0 9 66
+ 0.21 1 4 cbr 500 ------- 1 1.0 2.0 42 67
- 0.21 1 4 cbr 500 ------- 1 1.0 2.0 42 67
r 0.21112 3 4 ack 40 ------- 2 3.0 0.0 8 64
+ 0.21112 4 0 ack 40 ------- 2 3.0 0.0 8 64
- 0.21112 4 0 ack 40 ------- 2 3.0 0.0 8 64
r 0.213 4 2 cbr 500 ------- 1 1.0 2.0 37 59
r 0.21312 4 0 ack 40 ------- 2 3.0 0.0 7 61
+ 0.21312 0 4 tcp 1040 ------- 2 0.0 3.0 15 68
+ 0.21312 0 4 tcp 1040 ------- 2 0.0 3.0 16 69
r 0.214 1 4 cbr 500 ------- 1 1.0 2.0 40 63
+ 0.214 4 2 cbr 500 ------- 1 1.0 2.0 40 63
- 0.214 4 2 cbr 500 ------- 1 1.0 2.0 40 63
- 0.21408 0 4 tcp 1040 ------- 2 0.0 3.0 14 58
+ 0.215 1 4 cbr 500 ------- 1 1.0 2.0 43 70
- 0.215 1 4 cbr 500 ------- 1 1.0 2.0 43 70
r 0.21576 0 4 tcp 1040 ------- 2 0.0 3.0 12 54
+ 0.21576 4 3 tcp 1040 ------- 2 0.0 3.0 12 54
- 0.21576 4 3 tcp 1040 ------- 2 0.0 3.0 12 54
r 0.21744 4 3 tcp 1040 ------- 2 0.0 3.0 10 50
+ 0.21744 3 4 ack 40 ------- 2 3.0 0.0 10 71
- 0.21744 3 4 ack 40 ------- 2 3.0 0.0 10 71
r 0.218 4 2 cbr 500 ------- 1 1.0 2.0 38 60
r 0.219 1 4 cbr 500 ------- 1 1.0 2.0 41 65
+ 0.219 4 2 cbr 500 ------- 1 1.0 2.0 41 65
- 0.219 4 2 cbr 500 ------- 1 1.0 2.0 41 65
r 0.21944 3 4 ack 40 ------- 2 3.0 0.0 9 66
+ 0.21944 4 0 ack 40 ------- 2 3.0 0.0 9 66
- 0.21944 4 0 ack 40 ------- 2 3.0 0.0 9 66
+ 0.22 1 4 cbr 500 ------- 1 1.0 2.0 44 72
- 0.22 1 4 cbr 500 ------- 1 1.0 2.0 44 72
r 0.22144 4 0 ack 40 ------- 2 3.0 0.0 8 64
+ 0.22144 0 4 tcp 1040 ------- 2 0.0 3.0 17 73
+ 0.22144 0 4 tcp 1040 ------- 2 0.0 3.0 18 74
- 0.2224 0 4 tcp 1040 ------- 2 0.0 3.0 15 68
r 0.223 4 2 cbr 500 ------- 1 1.0 2.0 39 62
r 0.224 1 4 cbr 500 ------- 1 1.0 2.0 42 67
+ 0.224 4 2 cbr 500 ------- 1 1.0 2.0 42 67
- 0.224 4 2 cbr 500 ------- 1 1.0 2.0 42 67
r 0.22408 0 4 tcp 1040 ------- 2 0.0 3.0 13 57
+ 0.22408 4 3 tcp 1040 ------- 2 0.0 3.0 13 57
- 0.22408 4 3 tcp 1040 ------- 2 0.0 3.0 13 57
+ 0.225 1 4 cbr 500 ------- 1 1.0 2.0 45 75
- 0.225 1 4 cbr 500 ------- 1 1.0 2.0 45 75
r 0.22576 4 3 tcp 1040 ------- 2 0.0 3.0 11 53
+ 0.22576 3 4 ack 40 ------- 2 3.0 0.0 11 76
- 0.22576 3 4 ack 40 ------- 2 3.0 0.0 11 76
r 0.22776 3 4 ack 40 ------- 2 3.0 0.0 10 71
+ 0.22776 4 0 ack 40 ------- 2 3.0 0.0 10 71
- 0.22776 4 0 ack 40 ------- 2 3.0 0.0 10 71
r 0.228 4 2 cbr 500 ------- 1 1.0 2.0 40 63
r 0.229 1 4 cbr 500 ------- 1 1.0 2.0 43 70
+ 0.229 4 2 cbr 500 ------- 1 1.0 2.0 43 70
- 0.229 4 2 cbr 500 ------- 1 1.0 2.0 43 70
r 0.22976 4 0 ack 40 ------- 2 3.0 0.0 9 66
+ 0.22976 0 4 tcp 1040 ------- 2 0.0 3.0 19 77
+ 0.22976 0 4 tcp 1040 ------- 2 0.0 3.0 20 78
+ 0.23 1 4 cbr 500 ------- 1 1.0 2.0 46 79
- 0.23 1 4 cbr 500 ------- 1 1.0 2.0 46 79
- 0.23072 0 4 tcp 1040 ------- 2 0.0 3.0 16 69
r 0.2324 0 4 tcp 1040 ------- 2 0.0 3.0 14 58
+ 0.2324 4 3 tcp 1040 ------- 2 0.0 3.0 14 58
- 0.2324 4 3 tcp 1040 ------- 2 0.0 3.0 14 58
r 0.233 4 2 cbr 500 ------- 1 1.0 2.0 41 65
r 0.234 1 4 cbr 500 ------- 1 1.0 2.0 44 72
+ 0.234 4 2 cbr 500 ------- 1 1.0 2.0 44 72
- 0.234 4 2 cbr 500 ------- 1 1.0 2.0 44 72
r 0.23408 4 3 tcp 1040 ------- 2 0.0 3.0 12 54
+ 0.23408 3 4 ack 40 ------- 2 3.0 0.0 12 80
- 0.23408 3 4 ack 40 ------- 2 3.0 0.0 12 80
+ 0.235 1 4 cbr 500 ------- 1 1.0 2.0 47 81
- 0.235 1 4 cbr 500 ------- 1 1.0 2.0 47 81
r 0.23608 3 4 ack 40 ------- 2 3.0 0.0 11 76
+ 0.23608 4 0 ack 40 ------- 2 3.0 0.0 11 76
- 0.23608 4 0 ack 40 ------- 2 3.0 0.0 11 76
r 0.238 4 2 cbr 500 ------- 1 1.0 2.0 42 67
r 0.23808 4 0 ack 40 ------- 2 3.0 0.0 10 71
+ 0.23808 0 4 tcp 1040 ------- 2 0.0 3.0 21 82
+ 0.23808 0 4 tcp 1040 ------- 2 0.0 3.0 22 83
r 0.239 1 4 cbr 500 ------- 1 1.0 2.0 45 75
+ 0.239 4 2 cbr 500 ------- 1 1.0 2.0 45 75
- 0.239 4 2 cbr 500 ------- 1 1.0 2.0 45 75
- 0.23904 0 4 tcp 1040 ------- 2 0.0 3.0 17 73
+ 0.24 1 4 cbr 500 ------- 1 1.0 2.0 48 84
- 0.24 1 4 cbr 500 ------- 1 1.0 2.0 48 84
r 0.24072 0 4 tcp 1040 ------- 2 0.0 3.0 15 68
+ 0.24072 4 3 tcp 1040 ------- 2 0.0 3.0 15 68
- 0.24072 4 3 tcp 1040 ------- 2 0.0 3.0 15 68
r 0.2424 4 3 tcp 1040 ------- 2 0.0 3.0 13 57
+ 0.2424 3 4 ack 40 ------- 2 3.0 0.0 13 85
- 0.2424 3 4 ack 40 ------- 2 3.0 0.0 13 85
r 0.243 4 2 cbr 500 ------- 1 1.0 2.0 43 70
r 0.244 1 4 cbr 500 ------- 1 1.0 2.0 46 79
+ 0.244 4 2 cbr 500 ------- 1 1.0 2.0 46 79
- 0.244 4 2 cbr 500 ------- 1 1.0 2.0 46 79
r 0.2444 3 4 ack 40 ------- 2 3.0 0.0 12 80
+ 0.2444 4 0 ack 40 ------- 2 3.0 0.0 12 80
- 0.2444 4 0 ack 40 ------- 2 3.0 0.0 12 80
+ 0.245 1 4 cbr 500 ------- 1 1.0 2.0 49 86
- 0.245 1 4 cbr 500 ------- 1 1.0 2.0 49 86
r 0.2464 4 0 ack 40 ------- 2 3.0 0.0 11 76
+ 0.2464 0 4 tcp 1040 ------- 2 0.0 3.0 23 87
+ 0.2464 0 4 tcp 1040 ------- 2 0.0 3.0 24 88
- 0.24736 0 4 tcp 1040 ------- 2 0.0 3.0 18 74
r 0.248 4 2 cbr 500 ------- 1 1.0 2.0 44 72
r 0.249 1 4 cbr 500 ------- 1 1.0 2.0 47 81
+ 0.249 4 2 cbr 500 ------- 1 1.0 2.0 47 81
- 0.249 4 2 cbr 500 ------- 1 1.0 2.0 47 81
r 0.24904 0 4 tcp 1040 ------- 2 0.0 3.0 16 69
+ 0.24904 4 3 tcp 1040 ------- 2 0.0 3.0 16 69
- 0.24904 4 3 tcp 1040 ------- 2 0.0 3.0 16 69
+ 0.25 1 4 cbr 500 ------- 1 1.0 2.0 50 89
- 0.25 1 4 cbr 500 ------- 1 1.0 2.0 50 89
r 0.25072 4 3 tcp 1040 ------- 2 0.0 3.0 14 58
+ 0.25072 3 4 ack 40 ------- 2 3.0 0.0 14 90
- 0.25072 3 4 ack 40 ------- 2 3.0 0.0 14 90
r 0.25272 3 4 ack 40 ------- 2 3.0 0.0 13 85
+ 0.25272 4 0 ack 40 ------- 2 3.0 0.0 13 85
- 0.25272 4 0 ack 40 ------- 2 3.0 0.0 13 85
r 0.253 4 2 cbr 500 ------- 1 1.0 2.0 45 75
r 0.254 1 4 cbr 500 ------- 1 1.0 2.0 48 84
+ 0.254 4 2 cbr 500 ------- 1 1.0 2.0 48 84
- 0.254 4 2 cbr 500 ------- 1 1.0 2.0 48 84
r 0.25472 4 0 ack 40 ------- 2 3.0 0.0 12 80
+ 0.25472 0 4 tcp 1040 ------- 2 0.0 3.0 25 91
+ 0.25472 0 4 tcp 1040 ------- 2 0.0 3.0 26 92
+ 0.255 1 4 cbr 500 ------- 1 1.0 2.0 51 93
- 0.255 1 4 cbr 500 ------- 1 1.0 2.0 51 93
- 0.25568 0 4 tcp 1040 ------- 2 0.0 3.0 19 77
r 0.25736 0 4 tcp 1040 ------- 2 0.0 3.0 17 73
+ 0.25736 4 3 tcp 1040 ------- 2 0.0 3.0 17 73
- 0.25736 4 3 tcp 1040 ------- 2 0.0 3.0 17 73
r 0.258 4 2 cbr 500 ------- 1 1.0 2.0 46 79
r 0.259 1 4 cbr 500 ------- 1 1.0 2.0 49 86
+ 0.259 4 2 cbr 500 ------- 1 1.0 2.0 49 86
- 0.259 4 2 cbr 500 ------- 1 1.0 2.0 49 86
r 0.25904 4 3 tcp 1040 ------- 2 0.0 3.0 15 68
+ 0.25904 3 4 ack 40 ------- 2 3.0 0.0 15 94
- 0.25904 3 4 ack 40 ------- 2 3.0 0.0 15 94
+ 0.26 1 4 cbr 500 ------- 1 1.0 2.0 52 95
- 0.26 1 4 cbr 500 ------- 1 1.0 2.0 52 95
r 0.26104 3 4 ack 40 ------- 2 3.0 0.0 14 90
+ 0.26104 4 0 ack 40 ------- 2 3.0 0.0 14 90
- 0.26104 4 0 ack 40 ------- 2 3.0 0.0 14 90
r 0.263 4 2 cbr 500 ------- 1 1.0 2.0 47 81
r 0.26304 4 0 ack 40 ------- 2 3.0 0.0 13 85
+ 0.26304 0 4 tcp 1040 ------- 2 0.0 3.0 27 96
+ 0.26304 0 4 tcp 1040 ------- 2 0.0 3.0 28 97
- 0.264 0 4 tcp 1040 ------- 2 0.0 3.0 20 78
r 0.264 1 4 cbr 500 ------- 1 1.0 2.0 50 89
+ 0.264 4 2 cbr 500 ------- 1 1.0 2.0 50 89
- 0.264 4 2 cbr 500 ------- 1 1.0 2.0 50 89
+ 0.265 1 4 cbr 500 ------- 1 1.0 2.0 53 98
- 0.265 1 4 cbr 500 ------- 1 1.0 2.0 53 98
r 0.26568 0 4 tcp 1040 ------- 2 0.0 3.0 18 74
+ 0.26568 4 3 tcp 1040 ------- 2 0.0 3.0 18 74
- 0.26568 4 3 tcp 1040 ------- 2 0.0 3.0 18 74
r 0.26736 4 3 tcp 1040 ------- 2 0.0 3.0 16 69
+ 0.26736 3 4 ack 40 ------- 2 3.0 0.0 16 99
- 0.26736 3 4 ack 40 ------- 2 3.0 0.0 16 99
r 0.268 4 2 cbr 500 ------- 1 1.0 2.0 48 84
r 0.269 1 4 cbr 500 ------- 1 1.0 2.0 51 93
+ 0.269 4 2 cbr 500 ------- 1 1.0 2.0 51 93
- 0.269 4 2 cbr 500 ------- 1 1.0 2.0 51 93
r 0.26936 3 4 ack 40 ------- 2 3.0 0.0 15 94
+ 0.26936 4 0 ack 40 ------- 2 3.0 0.0 15 94
- 0.26936 4 0 ack 40 ------- 2 3.0 0.0 15 94
+ 0.27 1 4 cbr 500 ------- 1 1.0 2.0 54 100
- 0.27 1 4 cbr 500 ------- 1 1.0 2.0 54 100
r 0.27136 4 0 ack 40 ------- 2 3.0 0.0 14 90
+ 0.27136 0 4 tcp 1040 ------- 2 0.0 3.0 29 101
+ 0.27136 0 4 tcp 1040 ------- 2 0.0 3.0 30 102
- 0.27232 0 4 tcp 1040 ------- 2 0.0 3.0 21 82
r 0.273 4 2 cbr 500 ------- 1 1.0 2.0 49 86
r 0.274 0 4 tcp 1040 ------- 2 0.0 3.0 19 77
+ 0.274 4 3 tcp 1040 ------- 2 0.0 3.0 19 77
- 0.274 4 3 tcp 1040 ------- 2 0.0 3.0 19 77
r 0.274 1 4 cbr 500 ------- 1 1.0 2.0 52 95
+ 0.274 4 2 cbr 500 ------- 1 1.0 2.0 52 95
- 0.274 4 2 cbr 500 ------- 1 1.0 2.0 52 95
+ 0.275 1 4 cbr 500 ------- 1 1.0 2.0 55 103
- 0.275 1 4 cbr 500 ------- 1 1.0 2.0 55 103
r 0.27568 4 3 tcp 1040 ------- 2 0.0 3.0 17 73
+ 0.27568 3 4 ack 40 ------- 2 3.0 0.0 17 104
- 0.27568 3 4 ack 40 ------- 2 3.0 0.0 17 104
r 0.27768 3 4 ack 40 ------- 2 3.0 0.0 16 99
+ 0.27768 4 0 ack 40 ------- 2 3.0 0.0 16 99
- 0.27768 4 0 ack 40 ------- 2 3.0 0.0 16 99
r 0.278 4 2 cbr 500 ------- 1 1.0 2.0 50 89
r 0.279 1 4 cbr 500 ------- 1 1.0 2.0 53 98
+ 0.279 4 2 cbr 500 ------- 1 1.0 2.0 53 98
- 0.279 4 2 cbr 500 ------- 1 1.0 2.0 53 98
r 0.27968 4 0 ack 40 ------- 2 3.0 0.0 15 94
+ 0.27968 0 4 tcp 1040 ------- 2 0.0 3.0 31 105
+ 0.27968 0 4 tcp 1040 ------- 2 0.0 3.0 32 106
+ 0.28 1 4 cbr 500 ------- 1 1.0 2.0 56 107
- 0.28 1 4 cbr 500 ------- 1 1.0 2.0 56 107
- 0.28064 0 4 tcp 1040 ------- 2 0.0 3.0 22 83
r 0.28232 0 4 tcp 1040 ------- 2 0.0 3.0 20 78
+ 0.28232 4 3 tcp 1040 ------- 2 0.0 3.0 20 78
- 0.28232 4 3 tcp 1040 ------- 2 0.0 3.0 20 78
r 0.283 4 2 cbr 500 ------- 1 1.0 2.0 51 93
r 0.284 4 3 tcp 1040 ------- 2 0.0 3.0 18 74
+ 0.284 3 4 ack 40 ------- 2 3.0 0.0 18 108
- 0.284 3 4 ack 40 ------- 2 3.0 0.0 18 108
r 0.284 1 4 cbr 500 ------- 1 1.0 2.0 54 100
+ 0.284 4 2 cbr 500 ------- 1 1.0 2.0 54 100
- 0.284 4 2 cbr 500 ------- 1 1.0 2.0 54 100
+ 0.285 1 4 cbr 500 ------- 1 1.0 2.0 57 109
- 0.285 1 4 cbr 500 ------- 1 1.0 2.0 57 109
r 0.286 3 4 ack 40 ------- 2 3.0 0.0 17 104
+ 0.286 4 0 ack 40 ------- 2 3.0 0.0 17 104
- 0.286 4 0 ack 40 ------- 2 3.0 0.0 17 104
r 0.288 4 0 ack 40 ------- 2 3.0 0.0 16 99
+ 0.288 0 4 tcp 1040 ------- 2 0.0 3.0 33 110
+ 0.288 0 4 tcp 1040 ------- 2 0.0 3.0 34 111
r 0.288 4 2 cbr 500 ------- 1 1.0 2.0 52 95
- 0.28896 0 4 tcp 1040 ------- 2 0.0 3.0 23 87
r 0.289 1 4 cbr 500 ------- 1 1.0 2.0 55 103
+ 0.289 4 2 cbr 500 ------- 1 1.0 2.0 55 103
- 0.289 4 2 cbr 500 ------- 1 1.0 2.0 55 103
+ 0.29 1 4 cbr 500 ------- 1 1.0 2.0 58 112
- 0.29 1 4 cbr 500 ------- 1 1.0 2.0 58 112
r 0.29064 0 4 tcp 1040 ------- 2 0.0 3.0 21 82
+ 0.29064 4 3 tcp 1040 ------- 2 0.0 3.0 21 82
- 0.29064 4 3 tcp 1040 ------- 2 0.0 3.0 21 82
r 0.29232 4 3 tcp 1040 ------- 2 0.0 3.0 19 77
+ 0.29232 3 4 ack 40 ------- 2 3.0 0.0 19 113
- 0.29232 3 4 ack 40 ------- 2 3.0 0.0 19 113
r 0.293 4 2 cbr 500 ------- 1 1.0 2.0 53 98
r 0.294 1 4 cbr 500 ------- 1 1.0 2.0 56 107
+ 0.294 4 2 cbr 500 ------- 1 1.0 2.0 56 107
- 0.294 4 2 cbr 500 ------- 1 1.0 2.0 56 107
r 0.29432 3 4 ack 40 ------- 2 3.0 0.0 18 108
+ 0.29432 4 0 ack 40 ------- 2 3.0 0.0 18 108
- 0.29432 4 0 ack 40 ------- 2 3.0 0.0 18 108
+ 0.295 1 4 cbr 500 ------- 1 1.0 2.0 59 114
- 0.295 1 4 cbr 500 ------- 1 1.0 2.0 59 114
r 0.29632 4 0 ack 40 ------- 2 3.0 0.0 17 104
+ 0.29632 0 4 tcp 1040 ------- 2 0.0 3.0 35 115
+ 0.29632 0 4 tcp 1040 ------- 2 0.0 3.0 36 116
- 0.29728 0 4 tcp 1040 ------- 2 0.0 3.0 24 88
r 0.298 4 2 cbr 500 ------- 1 1.0 2.0 54 100
r 0.29896 0 4 tcp 1040 ------- 2 0.0 3.0 22 83
+ 0.29896 4 3 tcp 1040 ------- 2 0.0 3.0 22 83
- 0.29896 4 3 tcp 1040 ------- 2 0.0 3.0 22 83
r 0.299 1 4 cbr 500 ------- 1 1.0 2.0 57 109
+ 0.299 4 2 cbr 500 ------- 1 1.0 2.0 57 109
- 0.299 4 2 cbr 500 ------- 1 1.0 2.0 57 109
+ 0.3 1 4 cbr 500 ------- 1 1.0 2.0 60 117
- 0.3 1 4 cbr 500 ------- 1 1.0 2.0 60 117
r 0.30064 4 3 tcp 1040 ------- 2 0.0 3.0 20 78
+ 0.30064 3 4 ack 40 ------- 2 3.0 0.0 20 118
- 0.30064 3 4 ack 40 ------- 2 3.0 0.0 20 118
r 0.30264 3 4 ack 40 ------- 2 3.0 0.0 19 113
+ 0.30264 4 0 ack 40 ------- 2 3.0 0.0 19 113
- 0.30264 4 0 ack 40 ------- 2 3.0 0.0 19 113
r 0.303 4 2 cbr 500 ------- 1 1.0 2.0 55 103
r 0.304 1 4 cbr 500 ------- 1 1.0 2.0 58 112
+ 0.304 4 2 cbr 500 ------- 1 1.0 2.0 58 112
- 0.304 4 2 cbr 500 ------- 1 1.0 2.0 58 112
r 0.30464 4 0 ack 40 ------- 2 3.0 0.0 18 108
+ 0.30464 0 4 tcp 1040 ------- 2 0.0 3.0 37 119
+ 0.30464 0 4 tcp 1040 ------- 2 0.0 3.0 38 120
+ 0.305 1 4 cbr 500 ------- 1 1.0 2.0 61 121
- 0.305 1 4 cbr 500 ------- 1 1.0 2.0 61 121
- 0.3056 0 4 tcp 1040 ------- 2 0.0 3.0 25 91
r 0.30728 0 4 tcp 1040 ------- 2 0.0 3.0 23 87
+ 0.30728 4 3 tcp 1040 ------- 2 0.0 3.0 23 87
- 0.30728 4 3 tcp 1040 ------- 2 0.0 3.0 23 87
r 0.308 4 2 cbr 500 ------- 1 1.0 2.0 56 107
r 0.30896 4 3 tcp 1040 ------- 2 0.0 3.0 21 82
+ 0.30896 3 4 ack 40 ------- 2 3.0 0.0 21 122
- 0.30896 3 4 ack 40 ------- 2 3.0 0.0 21 122
r 0.309 1 4 cbr 500 ------- 1 1.0 2.0 59 114
+ 0.309 4 2 cbr 500 ------- 1 1.0 2.0 59 114
- 0.309 4 2 cbr 500 ------- 1 1.0 2.0 59 114
+ 0.31 1 4 cbr 500 ------- 1 1.0 2.0 62 123
- 0.31 1 4 cbr 500 ------- 1 1.0 2.0 62 123
r 0.31096 3 4 ack 40 ------- 2 3.0 0.0 20 118
+ 0.31096 4 0 ack 40 ------- 2 3.0 0.0 20 118
- 0.31096 4 0 ack 40 ------- 2 3.0 0.0 20 118
r 0.31296 4 0 ack 40 ------- 2 3.0 0.0 19 113
+ 0.31296 0 4 tcp 1040 ------- 2 0.0 3.0 39 124
r 0.313 4 2 cbr 500 ------- 1 1.0 2.0 57 109
- 0.31392 0 4 tcp 1040 ------- 2 0.0 3.0 26 92
r 0.314 1 4 cbr 500 ------- 1 1.0 2.0 60 117
+ 0.314 4 2 cbr 500 ------- 1 1.0 2.0 60 117
- 0.314 4 2 cbr 500 ------- 1 1.0 2.0 60 117
+ 0.315 1 4 cbr 500 ------- 1 1.0 2.0 63 125
- 0.315 1 4 cbr 500 ------- 1 1.0 2.0 63 125
r 0.3156 0 4 tcp 1040 ------- 2 0.0 3.0 24 88
+ 0.3156 4 3 tcp 1040 ------- 2 0.0 3.0 24 88
- 0.3156 4 3 tcp 1040 ------- 2 0.0 3.0 24 88
r 0.31728 4 3 tcp 1040 ------- 2 0.0 3.0 22 83
+ 0.31728 3 4 ack 40 ------- 2 3.0 0.0 22 126
- 0.31728 3 4 ack 40 ------- 2 3.0 0.0 22 126
r 0.318 4 2 cbr 500 ------- 1 1.0 2.0 58 112
r 0.319 1 4 cbr 500 ------- 1 1.0 2.0 61 121
+ 0.319 4 2 cbr 500 ------- 1 1.0 2.0 61 121
- 0.319 4 2 cbr 500 ------- 1 1.0 2.0 61 121
r 0.31928 3 4 ack 40 ------- 2 3.0 0.0 21 122
+ 0.31928 4 0 ack 40 ------- 2 3.0 0.0 21 122
- 0.31928 4 0 ack 40 ------- 2 3.0 0.0 21 122
+ 0.32 1 4 cbr 500 ------- 1 1.0 2.0 64 127
- 0.32 1 4 cbr 500 ------- 1 1.0 2.0 64 127
r 0.32128 4 0 ack 40 ------- 2 3.0 0.0 20 118
+ 0.32128 0 4 tcp 1040 ------- 2 0.0 3.0 40 128